+ 1 1 2 tcp 40 ------- 1 1.0 6.0 0 0
- 1 1 2 tcp 40 ------- 1 1.0 6.0 0 0
r 1.00232 1 2 tcp 40 ------- 1 1.0 6.0 0 0
+ 1.00232 2 3 tcp 40 ------- 1 1.0 6.0 0 0
- 1.00232 2 3 tcp 40 ------- 1 1.0 6.0 0 0
r 1.004777 2 3 tcp 40 ------- 1 1.0 6.0 0 0
+ 1.004777 3 5 tcp 40 ------- 1 1.0 6.0 0 0
- 1.004777 3 5 tcp 40 ------- 1 1.0 6.0 0 0
r 1.007234 3 5 tcp 40 ------- 1 1.0 6.0 0 0
+ 1.007234 5 6 tcp 40 ------- 1 1.0 6.0 0 0
- 1.007234 5 6 tcp 40 ------- 1 1.0 6.0 0 0
r 1.009554 5 6 tcp 40 ------- 1 1.0 6.0 0 0
+ 1.009554 6 5 ack 40 ------- 1 6.0 1.0 0 1
- 1.009554 6 5 ack 40 ------- 1 6.0 1.0 0 1
r 1.011874 6 5 ack 40 ------- 1 6.0 1.0 0 1
+ 1.011874 5 3 ack 40 ------- 1 6.0 1.0 0 1
- 1.011874 5 3 ack 40 ------- 1 6.0 1.0 0 1
r 1.014331 5 3 ack 40 ------- 1 6.0 1.0 0 1
+ 1.014331 3 2 ack 40 ------- 1 6.0 1.0 0 1
- 1.014331 3 2 ack 40 ------- 1 6.0 1.0 0 1
r 1.016789 3 2 ack 40 ------- 1 6.0 1.0 0 1
+ 1.016789 2 1 ack 40 ------- 1 6.0 1.0 0 1
- 1.016789 2 1 ack 40 ------- 1 6.0 1.0 0 1
r 1.019109 2 1 ack 40 ------- 1 6.0 1.0 0 1
+ 1.019109 1 2 tcp 1040 ------- 1 1.0 6.0 1 2
- 1.019109 1 2 tcp 1040 ------- 1 1.0 6.0 1 2
+ 1.019109 1 2 tcp 1040 ------- 1 1.0 6.0 2 3
- 1.027429 1 2 tcp 1040 ------- 1 1.0 6.0 2 3
r 1.029429 1 2 tcp 1040 ------- 1 1.0 6.0 1 2
+ 1.029429 2 3 tcp 1040 ------- 1 1.0 6.0 1 2
- 1.029429 2 3 tcp 1040 ------- 1 1.0 6.0 1 2
r 1.037749 1 2 tcp 1040 ------- 1 1.0 6.0 2 3
+ 1.037749 2 3 tcp 1040 ------- 1 1.0 6.0 2 3
- 1.041314 2 3 tcp 1040 ------- 1 1.0 6.0 2 3
r 1.043314 2 3 tcp 1040 ------- 1 1.0 6.0 1 2
+ 1.043314 3 5 tcp 1040 ------- 1 1.0 6.0 1 2
- 1.043314 3 5 tcp 1040 ------- 1 1.0 6.0 1 2
r 1.0552 2 3 tcp 1040 ------- 1 1.0 6.0 2 3
+ 1.0552 3 5 tcp 1040 ------- 1 1.0 6.0 2 3
- 1.0552 3 5 tcp 1040 ------- 1 1.0 6.0 2 3
r 1.0572 3 5 tcp 1040 ------- 1 1.0 6.0 1 2
+ 1.0572 5 6 tcp 1040 ------- 1 1.0 6.0 1 2
- 1.0572 5 6 tcp 1040 ------- 1 1.0 6.0 1 2
r 1.06752 5 6 tcp 1040 ------- 1 1.0 6.0 1 2
+ 1.06752 6 5 ack 40 ------- 1 6.0 1.0 1 4
- 1.06752 6 5 ack 40 ------- 1 6.0 1.0 1 4
r 1.069086 3 5 tcp 1040 ------- 1 1.0 6.0 2 3
+ 1.069086 5 6 tcp 1040 ------- 1 1.0 6.0 2 3
- 1.069086 5 6 tcp 1040 ------- 1 1.0 6.0 2 3
r 1.06984 6 5 ack 40 ------- 1 6.0 1.0 1 4
+ 1.06984 5 3 ack 40 ------- 1 6.0 1.0 1 4
- 1.06984 5 3 ack 40 ------- 1 6.0 1.0 1 4
r 1.072297 5 3 ack 40 ------- 1 6.0 1.0 1 4
+ 1.072297 3 2 ack 40 ------- 1 6.0 1.0 1 4
- 1.072297 3 2 ack 40 ------- 1 6.0 1.0 1 4
r 1.074754 3 2 ack 40 ------- 1 6.0 1.0 1 4
+ 1.074754 2 1 ack 40 ------- 1 6.0 1.0 1 4
- 1.074754 2 1 ack 40 ------- 1 6.0 1.0 1 4
r 1.077074 2 1 ack 40 ------- 1 6.0 1.0 1 4
+ 1.077074 1 2 tcp 1040 ------- 1 1.0 6.0 3 5
- 1.077074 1 2 tcp 1040 ------- 1 1.0 6.0 3 5
+ 1.077074 1 2 tcp 1040 ------- 1 1.0 6.0 4 6
r 1.079406 5 6 tcp 1040 ------- 1 1.0 6.0 2 3
+ 1.079406 6 5 ack 40 ------- 1 6.0 1.0 2 7
- 1.079406 6 5 ack 40 ------- 1 6.0 1.0 2 7
r 1.081726 6 5 ack 40 ------- 1 6.0 1.0 2 7
+ 1.081726 5 3 ack 40 ------- 1 6.0 1.0 2 7
- 1.081726 5 3 ack 40 ------- 1 6.0 1.0 2 7
r 1.084183 5 3 ack 40 ------- 1 6.0 1.0 2 7
+ 1.084183 3 2 ack 40 ------- 1 6.0 1.0 2 7
- 1.084183 3 2 ack 40 ------- 1 6.0 1.0 2 7
- 1.085394 1 2 tcp 1040 ------- 1 1.0 6.0 4 6
r 1.08664 3 2 ack 40 ------- 1 6.0 1.0 2 7
+ 1.08664 2 1 ack 40 ------- 1 6.0 1.0 2 7
- 1.08664 2 1 ack 40 ------- 1 6.0 1.0 2 7
r 1.087394 1 2 tcp 1040 ------- 1 1.0 6.0 3 5
+ 1.087394 2 3 tcp 1040 ------- 1 1.0 6.0 3 5
- 1.087394 2 3 tcp 1040 ------- 1 1.0 6.0 3 5
r 1.08896 2 1 ack 40 ------- 1 6.0 1.0 2 7
+ 1.08896 1 2 tcp 1040 ------- 1 1.0 6.0 5 8
+ 1.08896 1 2 tcp 1040 ------- 1 1.0 6.0 6 9
- 1.093714 1 2 tcp 1040 ------- 1 1.0 6.0 5 8
r 1.095714 1 2 tcp 1040 ------- 1 1.0 6.0 4 6
+ 1.095714 2 3 tcp 1040 ------- 1 1.0 6.0 4 6
- 1.09928 2 3 tcp 1040 ------- 1 1.0 6.0 4 6
r 1.10128 2 3 tcp 1040 ------- 1 1.0 6.0 3 5
+ 1.10128 3 5 tcp 1040 ------- 1 1.0 6.0 3 5
- 1.10128 3 5 tcp 1040 ------- 1 1.0 6.0 3 5
- 1.102034 1 2 tcp 1040 ------- 1 1.0 6.0 6 9
r 1.104034 1 2 tcp 1040 ------- 1 1.0 6.0 5 8
+ 1.104034 2 3 tcp 1040 ------- 1 1.0 6.0 5 8
- 1.111166 2 3 tcp 1040 ------- 1 1.0 6.0 5 8
r 1.112354 1 2 tcp 1040 ------- 1 1.0 6.0 6 9
+ 1.112354 2 3 tcp 1040 ------- 1 1.0 6.0 6 9
r 1.113166 2 3 tcp 1040 ------- 1 1.0 6.0 4 6
+ 1.113166 3 5 tcp 1040 ------- 1 1.0 6.0 4 6
- 1.113166 3 5 tcp 1040 ------- 1 1.0 6.0 4 6
r 1.115166 3 5 tcp 1040 ------- 1 1.0 6.0 3 5
+ 1.115166 5 6 tcp 1040 ------- 1 1.0 6.0 3 5
- 1.115166 5 6 tcp 1040 ------- 1 1.0 6.0 3 5
- 1.123051 2 3 tcp 1040 ------- 1 1.0 6.0 6 9
r 1.125051 2 3 tcp 1040 ------- 1 1.0 6.0 5 8
+ 1.125051 3 5 tcp 1040 ------- 1 1.0 6.0 5 8
- 1.125051 3 5 tcp 1040 ------- 1 1.0 6.0 5 8
r 1.125486 5 6 tcp 1040 ------- 1 1.0 6.0 3 5
+ 1.125486 6 5 ack 40 ------- 1 6.0 1.0 3 10
- 1.125486 6 5 ack 40 ------- 1 6.0 1.0 3 10
r 1.127051 3 5 tcp 1040 ------- 1 1.0 6.0 4 6
+ 1.127051 5 6 tcp 1040 ------- 1 1.0 6.0 4 6
- 1.127051 5 6 tcp 1040 ------- 1 1.0 6.0 4 6
r 1.127806 6 5 ack 40 ------- 1 6.0 1.0 3 10
+ 1.127806 5 3 ack 40 ------- 1 6.0 1.0 3 10
- 1.127806 5 3 ack 40 ------- 1 6.0 1.0 3 10
r 1.130263 5 3 ack 40 ------- 1 6.0 1.0 3 10
+ 1.130263 3 2 ack 40 ------- 1 6.0 1.0 3 10
- 1.130263 3 2 ack 40 ------- 1 6.0 1.0 3 10
r 1.13272 3 2 ack 40 ------- 1 6.0 1.0 3 10
+ 1.13272 2 1 ack 40 ------- 1 6.0 1.0 3 10
- 1.13272 2 1 ack 40 ------- 1 6.0 1.0 3 10
r 1.13504 2 1 ack 40 ------- 1 6.0 1.0 3 10
+ 1.13504 1 2 tcp 1040 ------- 1 1.0 6.0 7 11
- 1.13504 1 2 tcp 1040 ------- 1 1.0 6.0 7 11
+ 1.13504 1 2 tcp 1040 ------- 1 1.0 6.0 8 12
r 1.136937 2 3 tcp 1040 ------- 1 1.0 6.0 6 9
+ 1.136937 3 5 tcp 1040 ------- 1 1.0 6.0 6 9
- 1.136937 3 5 tcp 1040 ------- 1 1.0 6.0 6 9
r 1.137371 5 6 tcp 1040 ------- 1 1.0 6.0 4 6
+ 1.137371 6 5 ack 40 ------- 1 6.0 1.0 4 13
- 1.137371 6 5 ack 40 ------- 1 6.0 1.0 4 13
r 1.138937 3 5 tcp 1040 ------- 1 1.0 6.0 5 8
+ 1.138937 5 6 tcp 1040 ------- 1 1.0 6.0 5 8
- 1.138937 5 6 tcp 1040 ------- 1 1.0 6.0 5 8
r 1.139691 6 5 ack 40 ------- 1 6.0 1.0 4 13
+ 1.139691 5 3 ack 40 ------- 1 6.0 1.0 4 13
- 1.139691 5 3 ack 40 ------- 1 6.0 1.0 4 13
r 1.142149 5 3 ack 40 ------- 1 6.0 1.0 4 13
+ 1.142149 3 2 ack 40 ------- 1 6.0 1.0 4 13
- 1.142149 3 2 ack 40 ------- 1 6.0 1.0 4 13
- 1.14336 1 2 tcp 1040 ------- 1 1.0 6.0 8 12
r 1.144606 3 2 ack 40 ------- 1 6.0 1.0 4 13
+ 1.144606 2 1 ack 40 ------- 1 6.0 1.0 4 13
- 1.144606 2 1 ack 40 ------- 1 6.0 1.0 4 13
r 1.14536 1 2 tcp 1040 ------- 1 1.0 6.0 7 11
+ 1.14536 2 3 tcp 1040 ------- 1 1.0 6.0 7 11
- 1.14536 2 3 tcp 1040 ------- 1 1.0 6.0 7 11
r 1.146926 2 1 ack 40 ------- 1 6.0 1.0 4 13
+ 1.146926 1 2 tcp 1040 ------- 1 1.0 6.0 9 14
+ 1.146926 1 2 tcp 1040 ------- 1 1.0 6.0 10 15
r 1.149257 5 6 tcp 1040 ------- 1 1.0 6.0 5 8
+ 1.149257 6 5 ack 40 ------- 1 6.0 1.0 5 16
- 1.149257 6 5 ack 40 ------- 1 6.0 1.0 5 16
r 1.150823 3 5 tcp 1040 ------- 1 1.0 6.0 6 9
+ 1.150823 5 6 tcp 1040 ------- 1 1.0 6.0 6 9
- 1.150823 5 6 tcp 1040 ------- 1 1.0 6.0 6 9
r 1.151577 6 5 ack 40 ------- 1 6.0 1.0 5 16
+ 1.151577 5 3 ack 40 ------- 1 6.0 1.0 5 16
- 1.151577 5 3 ack 40 ------- 1 6.0 1.0 5 16
- 1.15168 1 2 tcp 1040 ------- 1 1.0 6.0 9 14
r 1.15368 1 2 tcp 1040 ------- 1 1.0 6.0 8 12
+ 1.15368 2 3 tcp 1040 ------- 1 1.0 6.0 8 12
r 1.154034 5 3 ack 40 ------- 1 6.0 1.0 5 16
+ 1.154034 3 2 ack 40 ------- 1 6.0 1.0 5 16
- 1.154034 3 2 ack 40 ------- 1 6.0 1.0 5 16
r 1.156491 3 2 ack 40 ------- 1 6.0 1.0 5 16
+ 1.156491 2 1 ack 40 ------- 1 6.0 1.0 5 16
- 1.156491 2 1 ack 40 ------- 1 6.0 1.0 5 16
- 1.157246 2 3 tcp 1040 ------- 1 1.0 6.0 8 12
r 1.158811 2 1 ack 40 ------- 1 6.0 1.0 5 16
+ 1.158811 1 2 tcp 1040 ------- 1 1.0 6.0 11 17
+ 1.158811 1 2 tcp 1040 ------- 1 1.0 6.0 12 18
r 1.159246 2 3 tcp 1040 ------- 1 1.0 6.0 7 11
+ 1.159246 3 5 tcp 1040 ------- 1 1.0 6.0 7 11
- 1.159246 3 5 tcp 1040 ------- 1 1.0 6.0 7 11
- 1.16 1 2 tcp 1040 ------- 1 1.0 6.0 10 15
r 1.161143 5 6 tcp 1040 ------- 1 1.0 6.0 6 9
+ 1.161143 6 5 ack 40 ------- 1 6.0 1.0 6 19
- 1.161143 6 5 ack 40 ------- 1 6.0 1.0 6 19
r 1.162 1 2 tcp 1040 ------- 1 1.0 6.0 9 14
+ 1.162 2 3 tcp 1040 ------- 1 1.0 6.0 9 14
r 1.163463 6 5 ack 40 ------- 1 6.0 1.0 6 19
+ 1.163463 5 3 ack 40 ------- 1 6.0 1.0 6 19
- 1.163463 5 3 ack 40 ------- 1 6.0 1.0 6 19
r 1.16592 5 3 ack 40 ------- 1 6.0 1.0 6 19
+ 1.16592 3 2 ack 40 ------- 1 6.0 1.0 6 19
- 1.16592 3 2 ack 40 ------- 1 6.0 1.0 6 19
- 1.16832 1 2 tcp 1040 ------- 1 1.0 6.0 11 17
r 1.168377 3 2 ack 40 ------- 1 6.0 1.0 6 19
+ 1.168377 2 1 ack 40 ------- 1 6.0 1.0 6 19
- 1.168377 2 1 ack 40 ------- 1 6.0 1.0 6 19
- 1.169131 2 3 tcp 1040 ------- 1 1.0 6.0 9 14
r 1.17032 1 2 tcp 1040 ------- 1 1.0 6.0 10 15
+ 1.17032 2 3 tcp 1040 ------- 1 1.0 6.0 10 15
r 1.170697 2 1 ack 40 ------- 1 6.0 1.0 6 19
+ 1.170697 1 2 tcp 1040 ------- 1 1.0 6.0 13 20
+ 1.170697 1 2 tcp 1040 ------- 1 1.0 6.0 14 21
r 1.171131 2 3 tcp 1040 ------- 1 1.0 6.0 8 12
+ 1.171131 3 5 tcp 1040 ------- 1 1.0 6.0 8 12
- 1.171131 3 5 tcp 1040 ------- 1 1.0 6.0 8 12
r 1.173131 3 5 tcp 1040 ------- 1 1.0 6.0 7 11
+ 1.173131 5 6 tcp 1040 ------- 1 1.0 6.0 7 11
- 1.173131 5 6 tcp 1040 ------- 1 1.0 6.0 7 11
- 1.17664 1 2 tcp 1040 ------- 1 1.0 6.0 12 18
r 1.17864 1 2 tcp 1040 ------- 1 1.0 6.0 11 17
+ 1.17864 2 3 tcp 1040 ------- 1 1.0 6.0 11 17
- 1.181017 2 3 tcp 1040 ------- 1 1.0 6.0 10 15
r 1.183017 2 3 tcp 1040 ------- 1 1.0 6.0 9 14
+ 1.183017 3 5 tcp 1040 ------- 1 1.0 6.0 9 14
- 1.183017 3 5 tcp 1040 ------- 1 1.0 6.0 9 14
r 1.183451 5 6 tcp 1040 ------- 1 1.0 6.0 7 11
+ 1.183451 6 5 ack 40 ------- 1 6.0 1.0 7 22
- 1.183451 6 5 ack 40 ------- 1 6.0 1.0 7 22
- 1.18496 1 2 tcp 1040 ------- 1 1.0 6.0 13 20
r 1.185017 3 5 tcp 1040 ------- 1 1.0 6.0 8 12
+ 1.185017 5 6 tcp 1040 ------- 1 1.0 6.0 8 12
- 1.185017 5 6 tcp 1040 ------- 1 1.0 6.0 8 12
r 1.185771 6 5 ack 40 ------- 1 6.0 1.0 7 22
+ 1.185771 5 3 ack 40 ------- 1 6.0 1.0 7 22
- 1.185771 5 3 ack 40 ------- 1 6.0 1.0 7 22
r 1.18696 1 2 tcp 1040 ------- 1 1.0 6.0 12 18
+ 1.18696 2 3 tcp 1040 ------- 1 1.0 6.0 12 18
r 1.188229 5 3 ack 40 ------- 1 6.0 1.0 7 22
+ 1.188229 3 2 ack 40 ------- 1 6.0 1.0 7 22
- 1.188229 3 2 ack 40 ------- 1 6.0 1.0 7 22
r 1.190686 3 2 ack 40 ------- 1 6.0 1.0 7 22
+ 1.190686 2 1 ack 40 ------- 1 6.0 1.0 7 22
- 1.190686 2 1 ack 40 ------- 1 6.0 1.0 7 22
- 1.192903 2 3 tcp 1040 ------- 1 1.0 6.0 11 17
r 1.193006 2 1 ack 40 ------- 1 6.0 1.0 7 22
+ 1.193006 1 2 tcp 1040 ------- 1 1.0 6.0 15 23
+ 1.193006 1 2 tcp 1040 ------- 1 1.0 6.0 16 24
- 1.19328 1 2 tcp 1040 ------- 1 1.0 6.0 14 21
r 1.194903 2 3 tcp 1040 ------- 1 1.0 6.0 10 15
+ 1.194903 3 5 tcp 1040 ------- 1 1.0 6.0 10 15
- 1.194903 3 5 tcp 1040 ------- 1 1.0 6.0 10 15
r 1.19528 1 2 tcp 1040 ------- 1 1.0 6.0 13 20
+ 1.19528 2 3 tcp 1040 ------- 1 1.0 6.0 13 20
r 1.195337 5 6 tcp 1040 ------- 1 1.0 6.0 8 12
+ 1.195337 6 5 ack 40 ------- 1 6.0 1.0 8 25
- 1.195337 6 5 ack 40 ------- 1 6.0 1.0 8 25
r 1.196903 3 5 tcp 1040 ------- 1 1.0 6.0 9 14
+ 1.196903 5 6 tcp 1040 ------- 1 1.0 6.0 9 14
- 1.196903 5 6 tcp 1040 ------- 1 1.0 6.0 9 14
r 1.197657 6 5 ack 40 ------- 1 6.0 1.0 8 25
+ 1.197657 5 3 ack 40 ------- 1 6.0 1.0 8 25
- 1.197657 5 3 ack 40 ------- 1 6.0 1.0 8 25
r 1.200114 5 3 ack 40 ------- 1 6.0 1.0 8 25
+ 1.200114 3 2 ack 40 ------- 1 6.0 1.0 8 25
- 1.200114 3 2 ack 40 ------- 1 6.0 1.0 8 25
- 1.2016 1 2 tcp 1040 ------- 1 1.0 6.0 15 23
r 1.202571 3 2 ack 40 ------- 1 6.0 1.0 8 25
+ 1.202571 2 1 ack 40 ------- 1 6.0 1.0 8 25
- 1.202571 2 1 ack 40 ------- 1 6.0 1.0 8 25
r 1.2036 1 2 tcp 1040 ------- 1 1.0 6.0 14 21
+ 1.2036 2 3 tcp 1040 ------- 1 1.0 6.0 14 21
- 1.204789 2 3 tcp 1040 ------- 1 1.0 6.0 12 18
r 1.204891 2 1 ack 40 ------- 1 6.0 1.0 8 25
+ 1.204891 1 2 tcp 1040 ------- 1 1.0 6.0 17 26
+ 1.204891 1 2 tcp 1040 ------- 1 1.0 6.0 18 27
r 1.206789 2 3 tcp 1040 ------- 1 1.0 6.0 11 17
+ 1.206789 3 5 tcp 1040 ------- 1 1.0 6.0 11 17
- 1.206789 3 5 tcp 1040 ------- 1 1.0 6.0 11 17
r 1.207223 5 6 tcp 1040 ------- 1 1.0 6.0 9 14
+ 1.207223 6 5 ack 40 ------- 1 6.0 1.0 9 28
- 1.207223 6 5 ack 40 ------- 1 6.0 1.0 9 28
r 1.208789 3 5 tcp 1040 ------- 1 1.0 6.0 10 15
+ 1.208789 5 6 tcp 1040 ------- 1 1.0 6.0 10 15
- 1.208789 5 6 tcp 1040 ------- 1 1.0 6.0 10 15
r 1.209543 6 5 ack 40 ------- 1 6.0 1.0 9 28
+ 1.209543 5 3 ack 40 ------- 1 6.0 1.0 9 28
- 1.209543 5 3 ack 40 ------- 1 6.0 1.0 9 28
- 1.20992 1 2 tcp 1040 ------- 1 1.0 6.0 16 24
r 1.21192 1 2 tcp 1040 ------- 1 1.0 6.0 15 23
+ 1.21192 2 3 tcp 1040 ------- 1 1.0 6.0 15 23
r 1.212 5 3 ack 40 ------- 1 6.0 1.0 9 28
+ 1.212 3 2 ack 40 ------- 1 6.0 1.0 9 28
- 1.212 3 2 ack 40 ------- 1 6.0 1.0 9 28
r 1.214457 3 2 ack 40 ------- 1 6.0 1.0 9 28
+ 1.214457 2 1 ack 40 ------- 1 6.0 1.0 9 28
- 1.214457 2 1 ack 40 ------- 1 6.0 1.0 9 28
- 1.216674 2 3 tcp 1040 ------- 1 1.0 6.0 13 20
r 1.216777 2 1 ack 40 ------- 1 6.0 1.0 9 28
+ 1.216777 1 2 tcp 1040 ------- 1 1.0 6.0 19 29
+ 1.216777 1 2 tcp 1040 ------- 1 1.0 6.0 20 30
- 1.21824 1 2 tcp 1040 ------- 1 1.0 6.0 17 26
r 1.218674 2 3 tcp 1040 ------- 1 1.0 6.0 12 18
+ 1.218674 3 5 tcp 1040 ------- 1 1.0 6.0 12 18
- 1.218674 3 5 tcp 1040 ------- 1 1.0 6.0 12 18
r 1.219109 5 6 tcp 1040 ------- 1 1.0 6.0 10 15
+ 1.219109 6 5 ack 40 ------- 1 6.0 1.0 10 31
- 1.219109 6 5 ack 40 ------- 1 6.0 1.0 10 31
r 1.22024 1 2 tcp 1040 ------- 1 1.0 6.0 16 24
+ 1.22024 2 3 tcp 1040 ------- 1 1.0 6.0 16 24
r 1.220674 3 5 tcp 1040 ------- 1 1.0 6.0 11 17
+ 1.220674 5 6 tcp 1040 ------- 1 1.0 6.0 11 17
- 1.220674 5 6 tcp 1040 ------- 1 1.0 6.0 11 17
r 1.221429 6 5 ack 40 ------- 1 6.0 1.0 10 31
+ 1.221429 5 3 ack 40 ------- 1 6.0 1.0 10 31
- 1.221429 5 3 ack 40 ------- 1 6.0 1.0 10 31
r 1.223886 5 3 ack 40 ------- 1 6.0 1.0 10 31
+ 1.223886 3 2 ack 40 ------- 1 6.0 1.0 10 31
- 1.223886 3 2 ack 40 ------- 1 6.0 1.0 10 31
r 1.226343 3 2 ack 40 ------- 1 6.0 1.0 10 31
+ 1.226343 2 1 ack 40 ------- 1 6.0 1.0 10 31
- 1.226343 2 1 ack 40 ------- 1 6.0 1.0 10 31
- 1.22656 1 2 tcp 1040 ------- 1 1.0 6.0 18 27
- 1.22856 2 3 tcp 1040 ------- 1 1.0 6.0 14 21
r 1.22856 1 2 tcp 1040 ------- 1 1.0 6.0 17 26
+ 1.22856 2 3 tcp 1040 ------- 1 1.0 6.0 17 26
r 1.228663 2 1 ack 40 ------- 1 6.0 1.0 10 31
+ 1.228663 1 2 tcp 1040 ------- 1 1.0 6.0 21 32
+ 1.228663 1 2 tcp 1040 ------- 1 1.0 6.0 22 33
r 1.23056 2 3 tcp 1040 ------- 1 1.0 6.0 13 20
+ 1.23056 3 5 tcp 1040 ------- 1 1.0 6.0 13 20
- 1.23056 3 5 tcp 1040 ------- 1 1.0 6.0 13 20
r 1.230994 5 6 tcp 1040 ------- 1 1.0 6.0 11 17
+ 1.230994 6 5 ack 40 ------- 1 6.0 1.0 11 34
- 1.230994 6 5 ack 40 ------- 1 6.0 1.0 11 34
r 1.23256 3 5 tcp 1040 ------- 1 1.0 6.0 12 18
+ 1.23256 5 6 tcp 1040 ------- 1 1.0 6.0 12 18
- 1.23256 5 6 tcp 1040 ------- 1 1.0 6.0 12 18
r 1.233314 6 5 ack 40 ------- 1 6.0 1.0 11 34
+ 1.233314 5 3 ack 40 ------- 1 6.0 1.0 11 34
- 1.233314 5 3 ack 40 ------- 1 6.0 1.0 11 34
- 1.23488 1 2 tcp 1040 ------- 1 1.0 6.0 19 29
r 1.235771 5 3 ack 40 ------- 1 6.0 1.0 11 34
+ 1.235771 3 2 ack 40 ------- 1 6.0 1.0 11 34
- 1.235771 3 2 ack 40 ------- 1 6.0 1.0 11 34
r 1.23688 1 2 tcp 1040 ------- 1 1.0 6.0 18 27
+ 1.23688 2 3 tcp 1040 ------- 1 1.0 6.0 18 27
r 1.238229 3 2 ack 40 ------- 1 6.0 1.0 11 34
+ 1.238229 2 1 ack 40 ------- 1 6.0 1.0 11 34
- 1.238229 2 1 ack 40 ------- 1 6.0 1.0 11 34
- 1.240446 2 3 tcp 1040 ------- 1 1.0 6.0 15 23
r 1.240549 2 1 ack 40 ------- 1 6.0 1.0 11 34
+ 1.240549 1 2 tcp 1040 ------- 1 1.0 6.0 23 35
+ 1.240549 1 2 tcp 1040 ------- 1 1.0 6.0 24 36
r 1.242446 2 3 tcp 1040 ------- 1 1.0 6.0 14 21
+ 1.242446 3 5 tcp 1040 ------- 1 1.0 6.0 14 21
- 1.242446 3 5 tcp 1040 ------- 1 1.0 6.0 14 21
r 1.24288 5 6 tcp 1040 ------- 1 1.0 6.0 12 18
+ 1.24288 6 5 ack 40 ------- 1 6.0 1.0 12 37
- 1.24288 6 5 ack 40 ------- 1 6.0 1.0 12 37
- 1.2432 1 2 tcp 1040 ------- 1 1.0 6.0 20 30
r 1.244446 3 5 tcp 1040 ------- 1 1.0 6.0 13 20
+ 1.244446 5 6 tcp 1040 ------- 1 1.0 6.0 13 20
- 1.244446 5 6 tcp 1040 ------- 1 1.0 6.0 13 20
r 1.2452 6 5 ack 40 ------- 1 6.0 1.0 12 37
+ 1.2452 5 3 ack 40 ------- 1 6.0 1.0 12 37
- 1.2452 5 3 ack 40 ------- 1 6.0 1.0 12 37
r 1.2452 1 2 tcp 1040 ------- 1 1.0 6.0 19 29
+ 1.2452 2 3 tcp 1040 ------- 1 1.0 6.0 19 29
r 1.247657 5 3 ack 40 ------- 1 6.0 1.0 12 37
+ 1.247657 3 2 ack 40 ------- 1 6.0 1.0 12 37
- 1.247657 3 2 ack 40 ------- 1 6.0 1.0 12 37
r 1.250114 3 2 ack 40 ------- 1 6.0 1.0 12 37
+ 1.250114 2 1 ack 40 ------- 1 6.0 1.0 12 37
- 1.250114 2 1 ack 40 ------- 1 6.0 1.0 12 37
- 1.25152 1 2 tcp 1040 ------- 1 1.0 6.0 21 32
- 1.252331 2 3 tcp 1040 ------- 1 1.0 6.0 16 24
r 1.252434 2 1 ack 40 ------- 1 6.0 1.0 12 37
+ 1.252434 1 2 tcp 1040 ------- 1 1.0 6.0 25 38
+ 1.252434 1 2 tcp 1040 ------- 1 1.0 6.0 26 39
r 1.25352 1 2 tcp 1040 ------- 1 1.0 6.0 20 30
+ 1.25352 2 3 tcp 1040 ------- 1 1.0 6.0 20 30
r 1.254331 2 3 tcp 1040 ------- 1 1.0 6.0 15 23
+ 1.254331 3 5 tcp 1040 ------- 1 1.0 6.0 15 23
- 1.254331 3 5 tcp 1040 ------- 1 1.0 6.0 15 23
r 1.254766 5 6 tcp 1040 ------- 1 1.0 6.0 13 20
+ 1.254766 6 5 ack 40 ------- 1 6.0 1.0 13 40
- 1.254766 6 5 ack 40 ------- 1 6.0 1.0 13 40
r 1.256331 3 5 tcp 1040 ------- 1 1.0 6.0 14 21
+ 1.256331 5 6 tcp 1040 ------- 1 1.0 6.0 14 21
- 1.256331 5 6 tcp 1040 ------- 1 1.0 6.0 14 21
r 1.257086 6 5 ack 40 ------- 1 6.0 1.0 13 40
+ 1.257086 5 3 ack 40 ------- 1 6.0 1.0 13 40
- 1.257086 5 3 ack 40 ------- 1 6.0 1.0 13 40
r 1.259543 5 3 ack 40 ------- 1 6.0 1.0 13 40
+ 1.259543 3 2 ack 40 ------- 1 6.0 1.0 13 40
- 1.259543 3 2 ack 40 ------- 1 6.0 1.0 13 40
- 1.25984 1 2 tcp 1040 ------- 1 1.0 6.0 22 33
r 1.26184 1 2 tcp 1040 ------- 1 1.0 6.0 21 32
+ 1.26184 2 3 tcp 1040 ------- 1 1.0 6.0 21 32
r 1.262 3 2 ack 40 ------- 1 6.0 1.0 13 40
+ 1.262 2 1 ack 40 ------- 1 6.0 1.0 13 40
- 1.262 2 1 ack 40 ------- 1 6.0 1.0 13 40
- 1.264217 2 3 tcp 1040 ------- 1 1.0 6.0 17 26
r 1.26432 2 1 ack 40 ------- 1 6.0 1.0 13 40
+ 1.26432 1 2 tcp 1040 ------- 1 1.0 6.0 27 41
+ 1.26432 1 2 tcp 1040 ------- 1 1.0 6.0 28 42
r 1.266217 2 3 tcp 1040 ------- 1 1.0 6.0 16 24
+ 1.266217 3 5 tcp 1040 ------- 1 1.0 6.0 16 24
- 1.266217 3 5 tcp 1040 ------- 1 1.0 6.0 16 24
r 1.266651 5 6 tcp 1040 ------- 1 1.0 6.0 14 21
+ 1.266651 6 5 ack 40 ------- 1 6.0 1.0 14 43
- 1.266651 6 5 ack 40 ------- 1 6.0 1.0 14 43
- 1.26816 1 2 tcp 1040 ------- 1 1.0 6.0 23 35
r 1.268217 3 5 tcp 1040 ------- 1 1.0 6.0 15 23
+ 1.268217 5 6 tcp 1040 ------- 1 1.0 6.0 15 23
- 1.268217 5 6 tcp 1040 ------- 1 1.0 6.0 15 23
r 1.268971 6 5 ack 40 ------- 1 6.0 1.0 14 43
+ 1.268971 5 3 ack 40 ------- 1 6.0 1.0 14 43
- 1.268971 5 3 ack 40 ------- 1 6.0 1.0 14 43
r 1.27016 1 2 tcp 1040 ------- 1 1.0 6.0 22 33
+ 1.27016 2 3 tcp 1040 ------- 1 1.0 6.0 22 33
r 1.271429 5 3 ack 40 ------- 1 6.0 1.0 14 43
+ 1.271429 3 2 ack 40 ------- 1 6.0 1.0 14 43
- 1.271429 3 2 ack 40 ------- 1 6.0 1.0 14 43
r 1.273886 3 2 ack 40 ------- 1 6.0 1.0 14 43
+ 1.273886 2 1 ack 40 ------- 1 6.0 1.0 14 43
- 1.273886 2 1 ack 40 ------- 1 6.0 1.0 14 43
- 1.276103 2 3 tcp 1040 ------- 1 1.0 6.0 18 27
r 1.276206 2 1 ack 40 ------- 1 6.0 1.0 14 43
+ 1.276206 1 2 tcp 1040 ------- 1 1.0 6.0 29 44
+ 1.276206 1 2 tcp 1040 ------- 1 1.0 6.0 30 45
- 1.27648 1 2 tcp 1040 ------- 1 1.0 6.0 24 36
r 1.278103 2 3 tcp 1040 ------- 1 1.0 6.0 17 26
+ 1.278103 3 5 tcp 1040 ------- 1 1.0 6.0 17 26
- 1.278103 3 5 tcp 1040 ------- 1 1.0 6.0 17 26
r 1.27848 1 2 tcp 1040 ------- 1 1.0 6.0 23 35
+ 1.27848 2 3 tcp 1040 ------- 1 1.0 6.0 23 35
r 1.278537 5 6 tcp 1040 ------- 1 1.0 6.0 15 23
+ 1.278537 6 5 ack 40 ------- 1 6.0 1.0 15 46
- 1.278537 6 5 ack 40 ------- 1 6.0 1.0 15 46
r 1.280103 3 5 tcp 1040 ------- 1 1.0 6.0 16 24
+ 1.280103 5 6 tcp 1040 ------- 1 1.0 6.0 16 24
- 1.280103 5 6 tcp 1040 ------- 1 1.0 6.0 16 24
r 1.280857 6 5 ack 40 ------- 1 6.0 1.0 15 46
+ 1.280857 5 3 ack 40 ------- 1 6.0 1.0 15 46
- 1.280857 5 3 ack 40 ------- 1 6.0 1.0 15 46
r 1.283314 5 3 ack 40 ------- 1 6.0 1.0 15 46
+ 1.283314 3 2 ack 40 ------- 1 6.0 1.0 15 46
- 1.283314 3 2 ack 40 ------- 1 6.0 1.0 15 46
- 1.2848 1 2 tcp 1040 ------- 1 1.0 6.0 25 38
r 1.285771 3 2 ack 40 ------- 1 6.0 1.0 15 46
+ 1.285771 2 1 ack 40 ------- 1 6.0 1.0 15 46
- 1.285771 2 1 ack 40 ------- 1 6.0 1.0 15 46
r 1.2868 1 2 tcp 1040 ------- 1 1.0 6.0 24 36
+ 1.2868 2 3 tcp 1040 ------- 1 1.0 6.0 24 36
- 1.287989 2 3 tcp 1040 ------- 1 1.0 6.0 19 29
r 1.288091 2 1 ack 40 ------- 1 6.0 1.0 15 46
+ 1.288091 1 2 tcp 1040 ------- 1 1.0 6.0 31 47
+ 1.288091 1 2 tcp 1040 ------- 1 1.0 6.0 32 48
r 1.289989 2 3 tcp 1040 ------- 1 1.0 6.0 18 27
+ 1.289989 3 5 tcp 1040 ------- 1 1.0 6.0 18 27
- 1.289989 3 5 tcp 1040 ------- 1 1.0 6.0 18 27
r 1.290423 5 6 tcp 1040 ------- 1 1.0 6.0 16 24
+ 1.290423 6 5 ack 40 ------- 1 6.0 1.0 16 49
- 1.290423 6 5 ack 40 ------- 1 6.0 1.0 16 49
r 1.291989 3 5 tcp 1040 ------- 1 1.0 6.0 17 26
+ 1.291989 5 6 tcp 1040 ------- 1 1.0 6.0 17 26
- 1.291989 5 6 tcp 1040 ------- 1 1.0 6.0 17 26
r 1.292743 6 5 ack 40 ------- 1 6.0 1.0 16 49
+ 1.292743 5 3 ack 40 ------- 1 6.0 1.0 16 49
- 1.292743 5 3 ack 40 ------- 1 6.0 1.0 16 49
- 1.29312 1 2 tcp 1040 ------- 1 1.0 6.0 26 39
r 1.29512 1 2 tcp 1040 ------- 1 1.0 6.0 25 38
+ 1.29512 2 3 tcp 1040 ------- 1 1.0 6.0 25 38
r 1.2952 5 3 ack 40 ------- 1 6.0 1.0 16 49
+ 1.2952 3 2 ack 40 ------- 1 6.0 1.0 16 49
- 1.2952 3 2 ack 40 ------- 1 6.0 1.0 16 49
r 1.297657 3 2 ack 40 ------- 1 6.0 1.0 16 49
+ 1.297657 2 1 ack 40 ------- 1 6.0 1.0 16 49
- 1.297657 2 1 ack 40 ------- 1 6.0 1.0 16 49
- 1.299874 2 3 tcp 1040 ------- 1 1.0 6.0 20 30
r 1.299977 2 1 ack 40 ------- 1 6.0 1.0 16 49
+ 1.299977 1 2 tcp 1040 ------- 1 1.0 6.0 33 50
+ 1.299977 1 2 tcp 1040 ------- 1 1.0 6.0 34 51
- 1.30144 1 2 tcp 1040 ------- 1 1.0 6.0 27 41
r 1.301874 2 3 tcp 1040 ------- 1 1.0 6.0 19 29
+ 1.301874 3 5 tcp 1040 ------- 1 1.0 6.0 19 29
- 1.301874 3 5 tcp 1040 ------- 1 1.0 6.0 19 29
r 1.302309 5 6 tcp 1040 ------- 1 1.0 6.0 17 26
+ 1.302309 6 5 ack 40 ------- 1 6.0 1.0 17 52
- 1.302309 6 5 ack 40 ------- 1 6.0 1.0 17 52
r 1.30344 1 2 tcp 1040 ------- 1 1.0 6.0 26 39
+ 1.30344 2 3 tcp 1040 ------- 1 1.0 6.0 26 39
r 1.303874 3 5 tcp 1040 ------- 1 1.0 6.0 18 27
+ 1.303874 5 6 tcp 1040 ------- 1 1.0 6.0 18 27
- 1.303874 5 6 tcp 1040 ------- 1 1.0 6.0 18 27
r 1.304629 6 5 ack 40 ------- 1 6.0 1.0 17 52
+ 1.304629 5 3 ack 40 ------- 1 6.0 1.0 17 52
- 1.304629 5 3 ack 40 ------- 1 6.0 1.0 17 52
r 1.307086 5 3 ack 40 ------- 1 6.0 1.0 17 52
+ 1.307086 3 2 ack 40 ------- 1 6.0 1.0 17 52
- 1.307086 3 2 ack 40 ------- 1 6.0 1.0 17 52
r 1.309543 3 2 ack 40 ------- 1 6.0 1.0 17 52
+ 1.309543 2 1 ack 40 ------- 1 6.0 1.0 17 52
- 1.309543 2 1 ack 40 ------- 1 6.0 1.0 17 52
- 1.30976 1 2 tcp 1040 ------- 1 1.0 6.0 28 42
- 1.31176 2 3 tcp 1040 ------- 1 1.0 6.0 21 32
r 1.31176 1 2 tcp 1040 ------- 1 1.0 6.0 27 41
+ 1.31176 2 3 tcp 1040 ------- 1 1.0 6.0 27 41
r 1.311863 2 1 ack 40 ------- 1 6.0 1.0 17 52
+ 1.311863 1 2 tcp 1040 ------- 1 1.0 6.0 35 53
+ 1.311863 1 2 tcp 1040 ------- 1 1.0 6.0 36 54
r 1.31376 2 3 tcp 1040 ------- 1 1.0 6.0 20 30
+ 1.31376 3 5 tcp 1040 ------- 1 1.0 6.0 20 30
- 1.31376 3 5 tcp 1040 ------- 1 1.0 6.0 20 30
r 1.314194 5 6 tcp 1040 ------- 1 1.0 6.0 18 27
+ 1.314194 6 5 ack 40 ------- 1 6.0 1.0 18 55
- 1.314194 6 5 ack 40 ------- 1 6.0 1.0 18 55
r 1.31576 3 5 tcp 1040 ------- 1 1.0 6.0 19 29
+ 1.31576 5 6 tcp 1040 ------- 1 1.0 6.0 19 29
- 1.31576 5 6 tcp 1040 ------- 1 1.0 6.0 19 29
r 1.316514 6 5 ack 40 ------- 1 6.0 1.0 18 55
+ 1.316514 5 3 ack 40 ------- 1 6.0 1.0 18 55
- 1.316514 5 3 ack 40 ------- 1 6.0 1.0 18 55
- 1.31808 1 2 tcp 1040 ------- 1 1.0 6.0 29 44
r 1.318971 5 3 ack 40 ------- 1 6.0 1.0 18 55
+ 1.318971 3 2 ack 40 ------- 1 6.0 1.0 18 55
- 1.318971 3 2 ack 40 ------- 1 6.0 1.0 18 55
r 1.32008 1 2 tcp 1040 ------- 1 1.0 6.0 28 42
+ 1.32008 2 3 tcp 1040 ------- 1 1.0 6.0 28 42
r 1.321429 3 2 ack 40 ------- 1 6.0 1.0 18 55
+ 1.321429 2 1 ack 40 ------- 1 6.0 1.0 18 55
- 1.321429 2 1 ack 40 ------- 1 6.0 1.0 18 55
- 1.323646 2 3 tcp 1040 ------- 1 1.0 6.0 22 33
r 1.323749 2 1 ack 40 ------- 1 6.0 1.0 18 55
+ 1.323749 1 2 tcp 1040 ------- 1 1.0 6.0 37 56
+ 1.323749 1 2 tcp 1040 ------- 1 1.0 6.0 38 57
r 1.325646 2 3 tcp 1040 ------- 1 1.0 6.0 21 32
+ 1.325646 3 5 tcp 1040 ------- 1 1.0 6.0 21 32
- 1.325646 3 5 tcp 1040 ------- 1 1.0 6.0 21 32
r 1.32608 5 6 tcp 1040 ------- 1 1.0 6.0 19 29
+ 1.32608 6 5 ack 40 ------- 1 6.0 1.0 19 58
- 1.32608 6 5 ack 40 ------- 1 6.0 1.0 19 58
- 1.3264 1 2 tcp 1040 ------- 1 1.0 6.0 30 45
r 1.327646 3 5 tcp 1040 ------- 1 1.0 6.0 20 30
+ 1.327646 5 6 tcp 1040 ------- 1 1.0 6.0 20 30
- 1.327646 5 6 tcp 1040 ------- 1 1.0 6.0 20 30
r 1.3284 6 5 ack 40 ------- 1 6.0 1.0 19 58
+ 1.3284 5 3 ack 40 ------- 1 6.0 1.0 19 58
- 1.3284 5 3 ack 40 ------- 1 6.0 1.0 19 58
r 1.3284 1 2 tcp 1040 ------- 1 1.0 6.0 29 44
+ 1.3284 2 3 tcp 1040 ------- 1 1.0 6.0 29 44
r 1.330857 5 3 ack 40 ------- 1 6.0 1.0 19 58
+ 1.330857 3 2 ack 40 ------- 1 6.0 1.0 19 58
- 1.330857 3 2 ack 40 ------- 1 6.0 1.0 19 58
r 1.333314 3 2 ack 40 ------- 1 6.0 1.0 19 58
+ 1.333314 2 1 ack 40 ------- 1 6.0 1.0 19 58
- 1.333314 2 1 ack 40 ------- 1 6.0 1.0 19 58
- 1.33472 1 2 tcp 1040 ------- 1 1.0 6.0 31 47
- 1.335531 2 3 tcp 1040 ------- 1 1.0 6.0 23 35
r 1.335634 2 1 ack 40 ------- 1 6.0 1.0 19 58
+ 1.335634 1 2 tcp 1040 ------- 1 1.0 6.0 39 59
r 1.33672 1 2 tcp 1040 ------- 1 1.0 6.0 30 45
+ 1.33672 2 3 tcp 1040 ------- 1 1.0 6.0 30 45
r 1.337531 2 3 tcp 1040 ------- 1 1.0 6.0 22 33
+ 1.337531 3 5 tcp 1040 ------- 1 1.0 6.0 22 33
- 1.337531 3 5 tcp 1040 ------- 1 1.0 6.0 22 33
r 1.337966 5 6 tcp 1040 ------- 1 1.0 6.0 20 30
+ 1.337966 6 5 ack 40 ------- 1 6.0 1.0 20 60
- 1.337966 6 5 ack 40 ------- 1 6.0 1.0 20 60
r 1.339531 3 5 tcp 1040 ------- 1 1.0 6.0 21 32
+ 1.339531 5 6 tcp 1040 ------- 1 1.0 6.0 21 32
- 1.339531 5 6 tcp 1040 ------- 1 1.0 6.0 21 32
r 1.340286 6 5 ack 40 ------- 1 6.0 1.0 20 60
+ 1.340286 5 3 ack 40 ------- 1 6.0 1.0 20 60
- 1.340286 5 3 ack 40 ------- 1 6.0 1.0 20 60
r 1.342743 5 3 ack 40 ------- 1 6.0 1.0 20 60
+ 1.342743 3 2 ack 40 ------- 1 6.0 1.0 20 60
- 1.342743 3 2 ack 40 ------- 1 6.0 1.0 20 60
- 1.34304 1 2 tcp 1040 ------- 1 1.0 6.0 32 48
r 1.34504 1 2 tcp 1040 ------- 1 1.0 6.0 31 47
+ 1.34504 2 3 tcp 1040 ------- 1 1.0 6.0 31 47
r 1.3452 3 2 ack 40 ------- 1 6.0 1.0 20 60
+ 1.3452 2 1 ack 40 ------- 1 6.0 1.0 20 60
- 1.3452 2 1 ack 40 ------- 1 6.0 1.0 20 60
- 1.347417 2 3 tcp 1040 ------- 1 1.0 6.0 24 36
r 1.34752 2 1 ack 40 ------- 1 6.0 1.0 20 60
+ 1.34752 1 2 tcp 1040 ------- 1 1.0 6.0 40 61
r 1.349417 2 3 tcp 1040 ------- 1 1.0 6.0 23 35
+ 1.349417 3 5 tcp 1040 ------- 1 1.0 6.0 23 35
- 1.349417 3 5 tcp 1040 ------- 1 1.0 6.0 23 35
r 1.349851 5 6 tcp 1040 ------- 1 1.0 6.0 21 32
+ 1.349851 6 5 ack 40 ------- 1 6.0 1.0 21 62
- 1.349851 6 5 ack 40 ------- 1 6.0 1.0 21 62
- 1.35136 1 2 tcp 1040 ------- 1 1.0 6.0 33 50
r 1.351417 3 5 tcp 1040 ------- 1 1.0 6.0 22 33
+ 1.351417 5 6 tcp 1040 ------- 1 1.0 6.0 22 33
- 1.351417 5 6 tcp 1040 ------- 1 1.0 6.0 22 33
r 1.352171 6 5 ack 40 ------- 1 6.0 1.0 21 62
+ 1.352171 5 3 ack 40 ------- 1 6.0 1.0 21 62
- 1.352171 5 3 ack 40 ------- 1 6.0 1.0 21 62
r 1.35336 1 2 tcp 1040 ------- 1 1.0 6.0 32 48
+ 1.35336 2 3 tcp 1040 ------- 1 1.0 6.0 32 48
r 1.354629 5 3 ack 40 ------- 1 6.0 1.0 21 62
+ 1.354629 3 2 ack 40 ------- 1 6.0 1.0 21 62
- 1.354629 3 2 ack 40 ------- 1 6.0 1.0 21 62
r 1.357086 3 2 ack 40 ------- 1 6.0 1.0 21 62
+ 1.357086 2 1 ack 40 ------- 1 6.0 1.0 21 62
- 1.357086 2 1 ack 40 ------- 1 6.0 1.0 21 62
- 1.359303 2 3 tcp 1040 ------- 1 1.0 6.0 25 38
r 1.359406 2 1 ack 40 ------- 1 6.0 1.0 21 62
+ 1.359406 1 2 tcp 1040 ------- 1 1.0 6.0 41 63
- 1.35968 1 2 tcp 1040 ------- 1 1.0 6.0 34 51
r 1.361303 2 3 tcp 1040 ------- 1 1.0 6.0 24 36
+ 1.361303 3 5 tcp 1040 ------- 1 1.0 6.0 24 36
- 1.361303 3 5 tcp 1040 ------- 1 1.0 6.0 24 36
r 1.36168 1 2 tcp 1040 ------- 1 1.0 6.0 33 50
+ 1.36168 2 3 tcp 1040 ------- 1 1.0 6.0 33 50
r 1.361737 5 6 tcp 1040 ------- 1 1.0 6.0 22 33
+ 1.361737 6 5 ack 40 ------- 1 6.0 1.0 22 64
- 1.361737 6 5 ack 40 ------- 1 6.0 1.0 22 64
r 1.363303 3 5 tcp 1040 ------- 1 1.0 6.0 23 35
+ 1.363303 5 6 tcp 1040 ------- 1 1.0 6.0 23 35
- 1.363303 5 6 tcp 1040 ------- 1 1.0 6.0 23 35
r 1.364057 6 5 ack 40 ------- 1 6.0 1.0 22 64
+ 1.364057 5 3 ack 40 ------- 1 6.0 1.0 22 64
- 1.364057 5 3 ack 40 ------- 1 6.0 1.0 22 64
r 1.366514 5 3 ack 40 ------- 1 6.0 1.0 22 64
+ 1.366514 3 2 ack 40 ------- 1 6.0 1.0 22 64
- 1.366514 3 2 ack 40 ------- 1 6.0 1.0 22 64
- 1.368 1 2 tcp 1040 ------- 1 1.0 6.0 35 53
r 1.368971 3 2 ack 40 ------- 1 6.0 1.0 22 64
+ 1.368971 2 1 ack 40 ------- 1 6.0 1.0 22 64
- 1.368971 2 1 ack 40 ------- 1 6.0 1.0 22 64
r 1.37 1 2 tcp 1040 ------- 1 1.0 6.0 34 51
+ 1.37 2 3 tcp 1040 ------- 1 1.0 6.0 34 51
- 1.371189 2 3 tcp 1040 ------- 1 1.0 6.0 26 39
r 1.371291 2 1 ack 40 ------- 1 6.0 1.0 22 64
+ 1.371291 1 2 tcp 1040 ------- 1 1.0 6.0 42 65
r 1.373189 2 3 tcp 1040 ------- 1 1.0 6.0 25 38
+ 1.373189 3 5 tcp 1040 ------- 1 1.0 6.0 25 38
- 1.373189 3 5 tcp 1040 ------- 1 1.0 6.0 25 38
r 1.373623 5 6 tcp 1040 ------- 1 1.0 6.0 23 35
+ 1.373623 6 5 ack 40 ------- 1 6.0 1.0 23 66
- 1.373623 6 5 ack 40 ------- 1 6.0 1.0 23 66
r 1.375189 3 5 tcp 1040 ------- 1 1.0 6.0 24 36
+ 1.375189 5 6 tcp 1040 ------- 1 1.0 6.0 24 36
- 1.375189 5 6 tcp 1040 ------- 1 1.0 6.0 24 36
r 1.375943 6 5 ack 40 ------- 1 6.0 1.0 23 66
+ 1.375943 5 3 ack 40 ------- 1 6.0 1.0 23 66
- 1.375943 5 3 ack 40 ------- 1 6.0 1.0 23 66
- 1.37632 1 2 tcp 1040 ------- 1 1.0 6.0 36 54
r 1.37832 1 2 tcp 1040 ------- 1 1.0 6.0 35 53
+ 1.37832 2 3 tcp 1040 ------- 1 1.0 6.0 35 53
r 1.3784 5 3 ack 40 ------- 1 6.0 1.0 23 66
+ 1.3784 3 2 ack 40 ------- 1 6.0 1.0 23 66
- 1.3784 3 2 ack 40 ------- 1 6.0 1.0 23 66
r 1.380857 3 2 ack 40 ------- 1 6.0 1.0 23 66
+ 1.380857 2 1 ack 40 ------- 1 6.0 1.0 23 66
- 1.380857 2 1 ack 40 ------- 1 6.0 1.0 23 66
- 1.383074 2 3 tcp 1040 ------- 1 1.0 6.0 27 41
r 1.383177 2 1 ack 40 ------- 1 6.0 1.0 23 66
+ 1.383177 1 2 tcp 1040 ------- 1 1.0 6.0 43 67
- 1.38464 1 2 tcp 1040 ------- 1 1.0 6.0 37 56
r 1.385074 2 3 tcp 1040 ------- 1 1.0 6.0 26 39
+ 1.385074 3 5 tcp 1040 ------- 1 1.0 6.0 26 39
- 1.385074 3 5 tcp 1040 ------- 1 1.0 6.0 26 39