V -t * -v 1.0a5 -a 0
A -t * -n 1 -p 0 -o 0x7fffffff -c 30 -a 1
A -t * -h 1 -m 1073741823 -s 0
c -t * -i 1 -n Blue
c -t * -i 2 -n Red
n -t * -a 4 -s 4 -S UP -v circle -c black -i black
n -t * -a 0 -s 0 -S UP -v circle -c black -i black
n -t * -a 1 -s 1 -S UP -v circle -c black -i black
n -t * -a 2 -s 2 -S UP -v circle -c black -i black
n -t * -a 3 -s 3 -S UP -v circle -c black -i black
l -t * -s 4 -d 0 -S UP -r 2000000 -D 0.10000000000000001 -c black
l -t * -s 0 -d 1 -S UP -r 2000000 -D 0.10000000000000001 -c black
l -t * -s 3 -d 1 -S UP -r 2000000 -D 0.10000000000000001 -c black
l -t * -s 1 -d 2 -S UP -r 2000000 -D 0.10000000000000001 -c black
+ -t 1 -s 4 -d 0 -p tcp -e 40 -c 1 -i 0 -a 1 -x {4.0 2.0 0 ------- null}
- -t 1 -s 4 -d 0 -p tcp -e 40 -c 1 -i 0 -a 1 -x {4.0 2.0 0 ------- null}
h -t 1 -s 4 -d 0 -p tcp -e 40 -c 1 -i 0 -a 1 -x {4.0 2.0 -1 ------- null}
r -t 1.10016 -s 4 -d 0 -p tcp -e 40 -c 1 -i 0 -a 1 -x {4.0 2.0 0 ------- null}
+ -t 1.10016 -s 0 -d 1 -p tcp -e 40 -c 1 -i 0 -a 1 -x {4.0 2.0 0 ------- null}
- -t 1.10016 -s 0 -d 1 -p tcp -e 40 -c 1 -i 0 -a 1 -x {4.0 2.0 0 ------- null}
h -t 1.10016 -s 0 -d 1 -p tcp -e 40 -c 1 -i 0 -a 1 -x {4.0 2.0 -1 ------- null}
r -t 1.20032 -s 0 -d 1 -p tcp -e 40 -c 1 -i 0 -a 1 -x {4.0 2.0 0 ------- null}
+ -t 1.20032 -s 1 -d 2 -p tcp -e 40 -c 1 -i 0 -a 1 -x {4.0 2.0 0 ------- null}
- -t 1.20032 -s 1 -d 2 -p tcp -e 40 -c 1 -i 0 -a 1 -x {4.0 2.0 0 ------- null}
h -t 1.20032 -s 1 -d 2 -p tcp -e 40 -c 1 -i 0 -a 1 -x {4.0 2.0 -1 ------- null}
r -t 1.30048 -s 1 -d 2 -p tcp -e 40 -c 1 -i 0 -a 1 -x {4.0 2.0 0 ------- null}
+ -t 1.30048 -s 2 -d 1 -p ack -e 40 -c 1 -i 1 -a 1 -x {2.0 4.0 0 ------- null}
- -t 1.30048 -s 2 -d 1 -p ack -e 40 -c 1 -i 1 -a 1 -x {2.0 4.0 0 ------- null}
h -t 1.30048 -s 2 -d 1 -p ack -e 40 -c 1 -i 1 -a 1 -x {2.0 4.0 -1 ------- null}
r -t 1.40064 -s 2 -d 1 -p ack -e 40 -c 1 -i 1 -a 1 -x {2.0 4.0 0 ------- null}
+ -t 1.40064 -s 1 -d 0 -p ack -e 40 -c 1 -i 1 -a 1 -x {2.0 4.0 0 ------- null}
- -t 1.40064 -s 1 -d 0 -p ack -e 40 -c 1 -i 1 -a 1 -x {2.0 4.0 0 ------- null}
h -t 1.40064 -s 1 -d 0 -p ack -e 40 -c 1 -i 1 -a 1 -x {2.0 4.0 -1 ------- null}
r -t 1.5008 -s 1 -d 0 -p ack -e 40 -c 1 -i 1 -a 1 -x {2.0 4.0 0 ------- null}
+ -t 1.5008 -s 0 -d 4 -p ack -e 40 -c 1 -i 1 -a 1 -x {2.0 4.0 0 ------- null}
- -t 1.5008 -s 0 -d 4 -p ack -e 40 -c 1 -i 1 -a 1 -x {2.0 4.0 0 ------- null}
h -t 1.5008 -s 0 -d 4 -p ack -e 40 -c 1 -i 1 -a 1 -x {2.0 4.0 -1 ------- null}
r -t 1.60096 -s 0 -d 4 -p ack -e 40 -c 1 -i 1 -a 1 -x {2.0 4.0 0 ------- null}
+ -t 1.60096 -s 4 -d 0 -p tcp -e 1040 -c 1 -i 2 -a 1 -x {4.0 2.0 1 ------- null}
- -t 1.60096 -s 4 -d 0 -p tcp -e 1040 -c 1 -i 2 -a 1 -x {4.0 2.0 1 ------- null}
h -t 1.60096 -s 4 -d 0 -p tcp -e 1040 -c 1 -i 2 -a 1 -x {4.0 2.0 -1 ------- null}
+ -t 1.60096 -s 4 -d 0 -p tcp -e 1040 -c 1 -i 3 -a 1 -x {4.0 2.0 2 ------- null}
- -t 1.60512 -s 4 -d 0 -p tcp -e 1040 -c 1 -i 3 -a 1 -x {4.0 2.0 2 ------- null}
h -t 1.60512 -s 4 -d 0 -p tcp -e 1040 -c 1 -i 3 -a 1 -x {4.0 2.0 -1 ------- null}
r -t 1.70512 -s 4 -d 0 -p tcp -e 1040 -c 1 -i 2 -a 1 -x {4.0 2.0 1 ------- null}
+ -t 1.70512 -s 0 -d 1 -p tcp -e 1040 -c 1 -i 2 -a 1 -x {4.0 2.0 1 ------- null}
- -t 1.70512 -s 0 -d 1 -p tcp -e 1040 -c 1 -i 2 -a 1 -x {4.0 2.0 1 ------- null}
h -t 1.70512 -s 0 -d 1 -p tcp -e 1040 -c 1 -i 2 -a 1 -x {4.0 2.0 -1 ------- null}
r -t 1.70928 -s 4 -d 0 -p tcp -e 1040 -c 1 -i 3 -a 1 -x {4.0 2.0 2 ------- null}
+ -t 1.70928 -s 0 -d 1 -p tcp -e 1040 -c 1 -i 3 -a 1 -x {4.0 2.0 2 ------- null}
- -t 1.70928 -s 0 -d 1 -p tcp -e 1040 -c 1 -i 3 -a 1 -x {4.0 2.0 2 ------- null}
h -t 1.70928 -s 0 -d 1 -p tcp -e 1040 -c 1 -i 3 -a 1 -x {4.0 2.0 -1 ------- null}
r -t 1.80928 -s 0 -d 1 -p tcp -e 1040 -c 1 -i 2 -a 1 -x {4.0 2.0 1 ------- null}
+ -t 1.80928 -s 1 -d 2 -p tcp -e 1040 -c 1 -i 2 -a 1 -x {4.0 2.0 1 ------- null}
- -t 1.80928 -s 1 -d 2 -p tcp -e 1040 -c 1 -i 2 -a 1 -x {4.0 2.0 1 ------- null}
h -t 1.80928 -s 1 -d 2 -p tcp -e 1040 -c 1 -i 2 -a 1 -x {4.0 2.0 -1 ------- null}
r -t 1.81344 -s 0 -d 1 -p tcp -e 1040 -c 1 -i 3 -a 1 -x {4.0 2.0 2 ------- null}
+ -t 1.81344 -s 1 -d 2 -p tcp -e 1040 -c 1 -i 3 -a 1 -x {4.0 2.0 2 ------- null}
- -t 1.81344 -s 1 -d 2 -p tcp -e 1040 -c 1 -i 3 -a 1 -x {4.0 2.0 2 ------- null}
h -t 1.81344 -s 1 -d 2 -p tcp -e 1040 -c 1 -i 3 -a 1 -x {4.0 2.0 -1 ------- null}
r -t 1.91344 -s 1 -d 2 -p tcp -e 1040 -c 1 -i 2 -a 1 -x {4.0 2.0 1 ------- null}
+ -t 1.91344 -s 2 -d 1 -p ack -e 40 -c 1 -i 4 -a 1 -x {2.0 4.0 1 ------- null}
- -t 1.91344 -s 2 -d 1 -p ack -e 40 -c 1 -i 4 -a 1 -x {2.0 4.0 1 ------- null}
h -t 1.91344 -s 2 -d 1 -p ack -e 40 -c 1 -i 4 -a 1 -x {2.0 4.0 -1 ------- null}
r -t 1.9176 -s 1 -d 2 -p tcp -e 1040 -c 1 -i 3 -a 1 -x {4.0 2.0 2 ------- null}
+ -t 1.9176 -s 2 -d 1 -p ack -e 40 -c 1 -i 5 -a 1 -x {2.0 4.0 2 ------- null}
- -t 1.9176 -s 2 -d 1 -p ack -e 40 -c 1 -i 5 -a 1 -x {2.0 4.0 2 ------- null}
h -t 1.9176 -s 2 -d 1 -p ack -e 40 -c 1 -i 5 -a 1 -x {2.0 4.0 -1 ------- null}
r -t 2.0136 -s 2 -d 1 -p ack -e 40 -c 1 -i 4 -a 1 -x {2.0 4.0 1 ------- null}
+ -t 2.0136 -s 1 -d 0 -p ack -e 40 -c 1 -i 4 -a 1 -x {2.0 4.0 1 ------- null}
- -t 2.0136 -s 1 -d 0 -p ack -e 40 -c 1 -i 4 -a 1 -x {2.0 4.0 1 ------- null}
h -t 2.0136 -s 1 -d 0 -p ack -e 40 -c 1 -i 4 -a 1 -x {2.0 4.0 -1 ------- null}
r -t 2.01776 -s 2 -d 1 -p ack -e 40 -c 1 -i 5 -a 1 -x {2.0 4.0 2 ------- null}
+ -t 2.01776 -s 1 -d 0 -p ack -e 40 -c 1 -i 5 -a 1 -x {2.0 4.0 2 ------- null}
- -t 2.01776 -s 1 -d 0 -p ack -e 40 -c 1 -i 5 -a 1 -x {2.0 4.0 2 ------- null}
h -t 2.01776 -s 1 -d 0 -p ack -e 40 -c 1 -i 5 -a 1 -x {2.0 4.0 -1 ------- null}
r -t 2.11376 -s 1 -d 0 -p ack -e 40 -c 1 -i 4 -a 1 -x {2.0 4.0 1 ------- null}
+ -t 2.11376 -s 0 -d 4 -p ack -e 40 -c 1 -i 4 -a 1 -x {2.0 4.0 1 ------- null}
- -t 2.11376 -s 0 -d 4 -p ack -e 40 -c 1 -i 4 -a 1 -x {2.0 4.0 1 ------- null}
h -t 2.11376 -s 0 -d 4 -p ack -e 40 -c 1 -i 4 -a 1 -x {2.0 4.0 -1 ------- null}
r -t 2.11792 -s 1 -d 0 -p ack -e 40 -c 1 -i 5 -a 1 -x {2.0 4.0 2 ------- null}
+ -t 2.11792 -s 0 -d 4 -p ack -e 40 -c 1 -i 5 -a 1 -x {2.0 4.0 2 ------- null}
- -t 2.11792 -s 0 -d 4 -p ack -e 40 -c 1 -i 5 -a 1 -x {2.0 4.0 2 ------- null}
h -t 2.11792 -s 0 -d 4 -p ack -e 40 -c 1 -i 5 -a 1 -x {2.0 4.0 -1 ------- null}
r -t 2.21392 -s 0 -d 4 -p ack -e 40 -c 1 -i 4 -a 1 -x {2.0 4.0 1 ------- null}
+ -t 2.21392 -s 4 -d 0 -p tcp -e 1040 -c 1 -i 6 -a 1 -x {4.0 2.0 3 ------- null}
- -t 2.21392 -s 4 -d 0 -p tcp -e 1040 -c 1 -i 6 -a 1 -x {4.0 2.0 3 ------- null}
h -t 2.21392 -s 4 -d 0 -p tcp -e 1040 -c 1 -i 6 -a 1 -x {4.0 2.0 -1 ------- null}
+ -t 2.21392 -s 4 -d 0 -p tcp -e 1040 -c 1 -i 7 -a 1 -x {4.0 2.0 4 ------- null}
r -t 2.21808 -s 0 -d 4 -p ack -e 40 -c 1 -i 5 -a 1 -x {2.0 4.0 2 ------- null}
+ -t 2.21808 -s 4 -d 0 -p tcp -e 1040 -c 1 -i 8 -a 1 -x {4.0 2.0 5 ------- null}
+ -t 2.21808 -s 4 -d 0 -p tcp -e 1040 -c 1 -i 9 -a 1 -x {4.0 2.0 6 ------- null}
- -t 2.21808 -s 4 -d 0 -p tcp -e 1040 -c 1 -i 7 -a 1 -x {4.0 2.0 4 ------- null}
h -t 2.21808 -s 4 -d 0 -p tcp -e 1040 -c 1 -i 7 -a 1 -x {4.0 2.0 -1 ------- null}
- -t 2.22224 -s 4 -d 0 -p tcp -e 1040 -c 1 -i 8 -a 1 -x {4.0 2.0 5 ------- null}
h -t 2.22224 -s 4 -d 0 -p tcp -e 1040 -c 1 -i 8 -a 1 -x {4.0 2.0 -1 ------- null}
- -t 2.2264 -s 4 -d 0 -p tcp -e 1040 -c 1 -i 9 -a 1 -x {4.0 2.0 6 ------- null}
h -t 2.2264 -s 4 -d 0 -p tcp -e 1040 -c 1 -i 9 -a 1 -x {4.0 2.0 -1 ------- null}
r -t 2.31808 -s 4 -d 0 -p tcp -e 1040 -c 1 -i 6 -a 1 -x {4.0 2.0 3 ------- null}
+ -t 2.31808 -s 0 -d 1 -p tcp -e 1040 -c 1 -i 6 -a 1 -x {4.0 2.0 3 ------- null}
- -t 2.31808 -s 0 -d 1 -p tcp -e 1040 -c 1 -i 6 -a 1 -x {4.0 2.0 3 ------- null}
h -t 2.31808 -s 0 -d 1 -p tcp -e 1040 -c 1 -i 6 -a 1 -x {4.0 2.0 -1 ------- null}
r -t 2.32224 -s 4 -d 0 -p tcp -e 1040 -c 1 -i 7 -a 1 -x {4.0 2.0 4 ------- null}
+ -t 2.32224 -s 0 -d 1 -p tcp -e 1040 -c 1 -i 7 -a 1 -x {4.0 2.0 4 ------- null}
- -t 2.32224 -s 0 -d 1 -p tcp -e 1040 -c 1 -i 7 -a 1 -x {4.0 2.0 4 ------- null}
h -t 2.32224 -s 0 -d 1 -p tcp -e 1040 -c 1 -i 7 -a 1 -x {4.0 2.0 -1 ------- null}
r -t 2.3264 -s 4 -d 0 -p tcp -e 1040 -c 1 -i 8 -a 1 -x {4.0 2.0 5 ------- null}
+ -t 2.3264 -s 0 -d 1 -p tcp -e 1040 -c 1 -i 8 -a 1 -x {4.0 2.0 5 ------- null}
- -t 2.3264 -s 0 -d 1 -p tcp -e 1040 -c 1 -i 8 -a 1 -x {4.0 2.0 5 ------- null}
h -t 2.3264 -s 0 -d 1 -p tcp -e 1040 -c 1 -i 8 -a 1 -x {4.0 2.0 -1 ------- null}
r -t 2.33056 -s 4 -d 0 -p tcp -e 1040 -c 1 -i 9 -a 1 -x {4.0 2.0 6 ------- null}
+ -t 2.33056 -s 0 -d 1 -p tcp -e 1040 -c 1 -i 9 -a 1 -x {4.0 2.0 6 ------- null}
- -t 2.33056 -s 0 -d 1 -p tcp -e 1040 -c 1 -i 9 -a 1 -x {4.0 2.0 6 ------- null}
h -t 2.33056 -s 0 -d 1 -p tcp -e 1040 -c 1 -i 9 -a 1 -x {4.0 2.0 -1 ------- null}
r -t 2.42224 -s 0 -d 1 -p tcp -e 1040 -c 1 -i 6 -a 1 -x {4.0 2.0 3 ------- null}
+ -t 2.42224 -s 1 -d 2 -p tcp -e 1040 -c 1 -i 6 -a 1 -x {4.0 2.0 3 ------- null}
- -t 2.42224 -s 1 -d 2 -p tcp -e 1040 -c 1 -i 6 -a 1 -x {4.0 2.0 3 ------- null}
h -t 2.42224 -s 1 -d 2 -p tcp -e 1040 -c 1 -i 6 -a 1 -x {4.0 2.0 -1 ------- null}
r -t 2.4264 -s 0 -d 1 -p tcp -e 1040 -c 1 -i 7 -a 1 -x {4.0 2.0 4 ------- null}
+ -t 2.4264 -s 1 -d 2 -p tcp -e 1040 -c 1 -i 7 -a 1 -x {4.0 2.0 4 ------- null}
- -t 2.4264 -s 1 -d 2 -p tcp -e 1040 -c 1 -i 7 -a 1 -x {4.0 2.0 4 ------- null}
h -t 2.4264 -s 1 -d 2 -p tcp -e 1040 -c 1 -i 7 -a 1 -x {4.0 2.0 -1 ------- null}
r -t 2.43056 -s 0 -d 1 -p tcp -e 1040 -c 1 -i 8 -a 1 -x {4.0 2.0 5 ------- null}
+ -t 2.43056 -s 1 -d 2 -p tcp -e 1040 -c 1 -i 8 -a 1 -x {4.0 2.0 5 ------- null}
- -t 2.43056 -s 1 -d 2 -p tcp -e 1040 -c 1 -i 8 -a 1 -x {4.0 2.0 5 ------- null}
h -t 2.43056 -s 1 -d 2 -p tcp -e 1040 -c 1 -i 8 -a 1 -x {4.0 2.0 -1 ------- null}
r -t 2.43472 -s 0 -d 1 -p tcp -e 1040 -c 1 -i 9 -a 1 -x {4.0 2.0 6 ------- null}
+ -t 2.43472 -s 1 -d 2 -p tcp -e 1040 -c 1 -i 9 -a 1 -x {4.0 2.0 6 ------- null}
- -t 2.43472 -s 1 -d 2 -p tcp -e 1040 -c 1 -i 9 -a 1 -x {4.0 2.0 6 ------- null}
h -t 2.43472 -s 1 -d 2 -p tcp -e 1040 -c 1 -i 9 -a 1 -x {4.0 2.0 -1 ------- null}
r -t 2.5264 -s 1 -d 2 -p tcp -e 1040 -c 1 -i 6 -a 1 -x {4.0 2.0 3 ------- null}
+ -t 2.5264 -s 2 -d 1 -p ack -e 40 -c 1 -i 10 -a 1 -x {2.0 4.0 3 ------- null}
- -t 2.5264 -s 2 -d 1 -p ack -e 40 -c 1 -i 10 -a 1 -x {2.0 4.0 3 ------- null}
h -t 2.5264 -s 2 -d 1 -p ack -e 40 -c 1 -i 10 -a 1 -x {2.0 4.0 -1 ------- null}
r -t 2.53056 -s 1 -d 2 -p tcp -e 1040 -c 1 -i 7 -a 1 -x {4.0 2.0 4 ------- null}
+ -t 2.53056 -s 2 -d 1 -p ack -e 40 -c 1 -i 11 -a 1 -x {2.0 4.0 4 ------- null}
- -t 2.53056 -s 2 -d 1 -p ack -e 40 -c 1 -i 11 -a 1 -x {2.0 4.0 4 ------- null}
h -t 2.53056 -s 2 -d 1 -p ack -e 40 -c 1 -i 11 -a 1 -x {2.0 4.0 -1 ------- null}
r -t 2.53472 -s 1 -d 2 -p tcp -e 1040 -c 1 -i 8 -a 1 -x {4.0 2.0 5 ------- null}
+ -t 2.53472 -s 2 -d 1 -p ack -e 40 -c 1 -i 12 -a 1 -x {2.0 4.0 5 ------- null}
- -t 2.53472 -s 2 -d 1 -p ack -e 40 -c 1 -i 12 -a 1 -x {2.0 4.0 5 ------- null}
h -t 2.53472 -s 2 -d 1 -p ack -e 40 -c 1 -i 12 -a 1 -x {2.0 4.0 -1 ------- null}
r -t 2.53888 -s 1 -d 2 -p tcp -e 1040 -c 1 -i 9 -a 1 -x {4.0 2.0 6 ------- null}
+ -t 2.53888 -s 2 -d 1 -p ack -e 40 -c 1 -i 13 -a 1 -x {2.0 4.0 6 ------- null}
- -t 2.53888 -s 2 -d 1 -p ack -e 40 -c 1 -i 13 -a 1 -x {2.0 4.0 6 ------- null}
h -t 2.53888 -s 2 -d 1 -p ack -e 40 -c 1 -i 13 -a 1 -x {2.0 4.0 -1 ------- null}
r -t 2.62656 -s 2 -d 1 -p ack -e 40 -c 1 -i 10 -a 1 -x {2.0 4.0 3 ------- null}
+ -t 2.62656 -s 1 -d 0 -p ack -e 40 -c 1 -i 10 -a 1 -x {2.0 4.0 3 ------- null}
- -t 2.62656 -s 1 -d 0 -p ack -e 40 -c 1 -i 10 -a 1 -x {2.0 4.0 3 ------- null}
h -t 2.62656 -s 1 -d 0 -p ack -e 40 -c 1 -i 10 -a 1 -x {2.0 4.0 -1 ------- null}
r -t 2.63072 -s 2 -d 1 -p ack -e 40 -c 1 -i 11 -a 1 -x {2.0 4.0 4 ------- null}
+ -t 2.63072 -s 1 -d 0 -p ack -e 40 -c 1 -i 11 -a 1 -x {2.0 4.0 4 ------- null}
- -t 2.63072 -s 1 -d 0 -p ack -e 40 -c 1 -i 11 -a 1 -x {2.0 4.0 4 ------- null}
h -t 2.63072 -s 1 -d 0 -p ack -e 40 -c 1 -i 11 -a 1 -x {2.0 4.0 -1 ------- null}
r -t 2.63488 -s 2 -d 1 -p ack -e 40 -c 1 -i 12 -a 1 -x {2.0 4.0 5 ------- null}
+ -t 2.63488 -s 1 -d 0 -p ack -e 40 -c 1 -i 12 -a 1 -x {2.0 4.0 5 ------- null}
- -t 2.63488 -s 1 -d 0 -p ack -e 40 -c 1 -i 12 -a 1 -x {2.0 4.0 5 ------- null}
h -t 2.63488 -s 1 -d 0 -p ack -e 40 -c 1 -i 12 -a 1 -x {2.0 4.0 -1 ------- null}
r -t 2.63904 -s 2 -d 1 -p ack -e 40 -c 1 -i 13 -a 1 -x {2.0 4.0 6 ------- null}
+ -t 2.63904 -s 1 -d 0 -p ack -e 40 -c 1 -i 13 -a 1 -x {2.0 4.0 6 ------- null}
- -t 2.63904 -s 1 -d 0 -p ack -e 40 -c 1 -i 13 -a 1 -x {2.0 4.0 6 ------- null}
h -t 2.63904 -s 1 -d 0 -p ack -e 40 -c 1 -i 13 -a 1 -x {2.0 4.0 -1 ------- null}
r -t 2.72672 -s 1 -d 0 -p ack -e 40 -c 1 -i 10 -a 1 -x {2.0 4.0 3 ------- null}
+ -t 2.72672 -s 0 -d 4 -p ack -e 40 -c 1 -i 10 -a 1 -x {2.0 4.0 3 ------- null}
- -t 2.72672 -s 0 -d 4 -p ack -e 40 -c 1 -i 10 -a 1 -x {2.0 4.0 3 ------- null}
h -t 2.72672 -s 0 -d 4 -p ack -e 40 -c 1 -i 10 -a 1 -x {2.0 4.0 -1 ------- null}
r -t 2.73088 -s 1 -d 0 -p ack -e 40 -c 1 -i 11 -a 1 -x {2.0 4.0 4 ------- null}
+ -t 2.73088 -s 0 -d 4 -p ack -e 40 -c 1 -i 11 -a 1 -x {2.0 4.0 4 ------- null}
- -t 2.73088 -s 0 -d 4 -p ack -e 40 -c 1 -i 11 -a 1 -x {2.0 4.0 4 ------- null}
h -t 2.73088 -s 0 -d 4 -p ack -e 40 -c 1 -i 11 -a 1 -x {2.0 4.0 -1 ------- null}
r -t 2.73504 -s 1 -d 0 -p ack -e 40 -c 1 -i 12 -a 1 -x {2.0 4.0 5 ------- null}
+ -t 2.73504 -s 0 -d 4 -p ack -e 40 -c 1 -i 12 -a 1 -x {2.0 4.0 5 ------- null}
- -t 2.73504 -s 0 -d 4 -p ack -e 40 -c 1 -i 12 -a 1 -x {2.0 4.0 5 ------- null}
h -t 2.73504 -s 0 -d 4 -p ack -e 40 -c 1 -i 12 -a 1 -x {2.0 4.0 -1 ------- null}
r -t 2.7392 -s 1 -d 0 -p ack -e 40 -c 1 -i 13 -a 1 -x {2.0 4.0 6 ------- null}
+ -t 2.7392 -s 0 -d 4 -p ack -e 40 -c 1 -i 13 -a 1 -x {2.0 4.0 6 ------- null}
- -t 2.7392 -s 0 -d 4 -p ack -e 40 -c 1 -i 13 -a 1 -x {2.0 4.0 6 ------- null}
h -t 2.7392 -s 0 -d 4 -p ack -e 40 -c 1 -i 13 -a 1 -x {2.0 4.0 -1 ------- null}
r -t 2.82688 -s 0 -d 4 -p ack -e 40 -c 1 -i 10 -a 1 -x {2.0 4.0 3 ------- null}
+ -t 2.82688 -s 4 -d 0 -p tcp -e 1040 -c 1 -i 14 -a 1 -x {4.0 2.0 7 ------- null}
- -t 2.82688 -s 4 -d 0 -p tcp -e 1040 -c 1 -i 14 -a 1 -x {4.0 2.0 7 ------- null}
h -t 2.82688 -s 4 -d 0 -p tcp -e 1040 -c 1 -i 14 -a 1 -x {4.0 2.0 -1 ------- null}
+ -t 2.82688 -s 4 -d 0 -p tcp -e 1040 -c 1 -i 15 -a 1 -x {4.0 2.0 8 ------- null}
r -t 2.83104 -s 0 -d 4 -p ack -e 40 -c 1 -i 11 -a 1 -x {2.0 4.0 4 ------- null}
+ -t 2.83104 -s 4 -d 0 -p tcp -e 1040 -c 1 -i 16 -a 1 -x {4.0 2.0 9 ------- null}
+ -t 2.83104 -s 4 -d 0 -p tcp -e 1040 -c 1 -i 17 -a 1 -x {4.0 2.0 10 ------- null}
- -t 2.83104 -s 4 -d 0 -p tcp -e 1040 -c 1 -i 15 -a 1 -x {4.0 2.0 8 ------- null}
h -t 2.83104 -s 4 -d 0 -p tcp -e 1040 -c 1 -i 15 -a 1 -x {4.0 2.0 -1 ------- null}
r -t 2.8352 -s 0 -d 4 -p ack -e 40 -c 1 -i 12 -a 1 -x {2.0 4.0 5 ------- null}
+ -t 2.8352 -s 4 -d 0 -p tcp -e 1040 -c 1 -i 18 -a 1 -x {4.0 2.0 11 ------- null}
+ -t 2.8352 -s 4 -d 0 -p tcp -e 1040 -c 1 -i 19 -a 1 -x {4.0 2.0 12 ------- null}
- -t 2.8352 -s 4 -d 0 -p tcp -e 1040 -c 1 -i 16 -a 1 -x {4.0 2.0 9 ------- null}
h -t 2.8352 -s 4 -d 0 -p tcp -e 1040 -c 1 -i 16 -a 1 -x {4.0 2.0 -1 ------- null}
r -t 2.83936 -s 0 -d 4 -p ack -e 40 -c 1 -i 13 -a 1 -x {2.0 4.0 6 ------- null}
+ -t 2.83936 -s 4 -d 0 -p tcp -e 1040 -c 1 -i 20 -a 1 -x {4.0 2.0 13 ------- null}
+ -t 2.83936 -s 4 -d 0 -p tcp -e 1040 -c 1 -i 21 -a 1 -x {4.0 2.0 14 ------- null}
- -t 2.83936 -s 4 -d 0 -p tcp -e 1040 -c 1 -i 17 -a 1 -x {4.0 2.0 10 ------- null}
h -t 2.83936 -s 4 -d 0 -p tcp -e 1040 -c 1 -i 17 -a 1 -x {4.0 2.0 -1 ------- null}
- -t 2.84352 -s 4 -d 0 -p tcp -e 1040 -c 1 -i 18 -a 1 -x {4.0 2.0 11 ------- null}
h -t 2.84352 -s 4 -d 0 -p tcp -e 1040 -c 1 -i 18 -a 1 -x {4.0 2.0 -1 ------- null}
- -t 2.84768 -s 4 -d 0 -p tcp -e 1040 -c 1 -i 19 -a 1 -x {4.0 2.0 12 ------- null}
h -t 2.84768 -s 4 -d 0 -p tcp -e 1040 -c 1 -i 19 -a 1 -x {4.0 2.0 -1 ------- null}
- -t 2.85184 -s 4 -d 0 -p tcp -e 1040 -c 1 -i 20 -a 1 -x {4.0 2.0 13 ------- null}
h -t 2.85184 -s 4 -d 0 -p tcp -e 1040 -c 1 -i 20 -a 1 -x {4.0 2.0 -1 ------- null}
- -t 2.856 -s 4 -d 0 -p tcp -e 1040 -c 1 -i 21 -a 1 -x {4.0 2.0 14 ------- null}
h -t 2.856 -s 4 -d 0 -p tcp -e 1040 -c 1 -i 21 -a 1 -x {4.0 2.0 -1 ------- null}
r -t 2.93104 -s 4 -d 0 -p tcp -e 1040 -c 1 -i 14 -a 1 -x {4.0 2.0 7 ------- null}
+ -t 2.93104 -s 0 -d 1 -p tcp -e 1040 -c 1 -i 14 -a 1 -x {4.0 2.0 7 ------- null}
- -t 2.93104 -s 0 -d 1 -p tcp -e 1040 -c 1 -i 14 -a 1 -x {4.0 2.0 7 ------- null}
h -t 2.93104 -s 0 -d 1 -p tcp -e 1040 -c 1 -i 14 -a 1 -x {4.0 2.0 -1 ------- null}
r -t 2.9352 -s 4 -d 0 -p tcp -e 1040 -c 1 -i 15 -a 1 -x {4.0 2.0 8 ------- null}
+ -t 2.9352 -s 0 -d 1 -p tcp -e 1040 -c 1 -i 15 -a 1 -x {4.0 2.0 8 ------- null}
- -t 2.9352 -s 0 -d 1 -p tcp -e 1040 -c 1 -i 15 -a 1 -x {4.0 2.0 8 ------- null}
h -t 2.9352 -s 0 -d 1 -p tcp -e 1040 -c 1 -i 15 -a 1 -x {4.0 2.0 -1 ------- null}
r -t 2.93936 -s 4 -d 0 -p tcp -e 1040 -c 1 -i 16 -a 1 -x {4.0 2.0 9 ------- null}
+ -t 2.93936 -s 0 -d 1 -p tcp -e 1040 -c 1 -i 16 -a 1 -x {4.0 2.0 9 ------- null}
- -t 2.93936 -s 0 -d 1 -p tcp -e 1040 -c 1 -i 16 -a 1 -x {4.0 2.0 9 ------- null}
h -t 2.93936 -s 0 -d 1 -p tcp -e 1040 -c 1 -i 16 -a 1 -x {4.0 2.0 -1 ------- null}
r -t 2.94352 -s 4 -d 0 -p tcp -e 1040 -c 1 -i 17 -a 1 -x {4.0 2.0 10 ------- null}
+ -t 2.94352 -s 0 -d 1 -p tcp -e 1040 -c 1 -i 17 -a 1 -x {4.0 2.0 10 ------- null}
- -t 2.94352 -s 0 -d 1 -p tcp -e 1040 -c 1 -i 17 -a 1 -x {4.0 2.0 10 ------- null}
h -t 2.94352 -s 0 -d 1 -p tcp -e 1040 -c 1 -i 17 -a 1 -x {4.0 2.0 -1 ------- null}
r -t 2.94768 -s 4 -d 0 -p tcp -e 1040 -c 1 -i 18 -a 1 -x {4.0 2.0 11 ------- null}
+ -t 2.94768 -s 0 -d 1 -p tcp -e 1040 -c 1 -i 18 -a 1 -x {4.0 2.0 11 ------- null}
- -t 2.94768 -s 0 -d 1 -p tcp -e 1040 -c 1 -i 18 -a 1 -x {4.0 2.0 11 ------- null}
h -t 2.94768 -s 0 -d 1 -p tcp -e 1040 -c 1 -i 18 -a 1 -x {4.0 2.0 -1 ------- null}
r -t 2.95184 -s 4 -d 0 -p tcp -e 1040 -c 1 -i 19 -a 1 -x {4.0 2.0 12 ------- null}
+ -t 2.95184 -s 0 -d 1 -p tcp -e 1040 -c 1 -i 19 -a 1 -x {4.0 2.0 12 ------- null}
- -t 2.95184 -s 0 -d 1 -p tcp -e 1040 -c 1 -i 19 -a 1 -x {4.0 2.0 12 ------- null}
h -t 2.95184 -s 0 -d 1 -p tcp -e 1040 -c 1 -i 19 -a 1 -x {4.0 2.0 -1 ------- null}
r -t 2.956 -s 4 -d 0 -p tcp -e 1040 -c 1 -i 20 -a 1 -x {4.0 2.0 13 ------- null}
+ -t 2.956 -s 0 -d 1 -p tcp -e 1040 -c 1 -i 20 -a 1 -x {4.0 2.0 13 ------- null}
- -t 2.956 -s 0 -d 1 -p tcp -e 1040 -c 1 -i 20 -a 1 -x {4.0 2.0 13 ------- null}
h -t 2.956 -s 0 -d 1 -p tcp -e 1040 -c 1 -i 20 -a 1 -x {4.0 2.0 -1 ------- null}
r -t 2.96016 -s 4 -d 0 -p tcp -e 1040 -c 1 -i 21 -a 1 -x {4.0 2.0 14 ------- null}
+ -t 2.96016 -s 0 -d 1 -p tcp -e 1040 -c 1 -i 21 -a 1 -x {4.0 2.0 14 ------- null}
- -t 2.96016 -s 0 -d 1 -p tcp -e 1040 -c 1 -i 21 -a 1 -x {4.0 2.0 14 ------- null}
h -t 2.96016 -s 0 -d 1 -p tcp -e 1040 -c 1 -i 21 -a 1 -x {4.0 2.0 -1 ------- null}
r -t 3.0352 -s 0 -d 1 -p tcp -e 1040 -c 1 -i 14 -a 1 -x {4.0 2.0 7 ------- null}
+ -t 3.0352 -s 1 -d 2 -p tcp -e 1040 -c 1 -i 14 -a 1 -x {4.0 2.0 7 ------- null}
- -t 3.0352 -s 1 -d 2 -p tcp -e 1040 -c 1 -i 14 -a 1 -x {4.0 2.0 7 ------- null}
h -t 3.0352 -s 1 -d 2 -p tcp -e 1040 -c 1 -i 14 -a 1 -x {4.0 2.0 -1 ------- null}
r -t 3.03936 -s 0 -d 1 -p tcp -e 1040 -c 1 -i 15 -a 1 -x {4.0 2.0 8 ------- null}
+ -t 3.03936 -s 1 -d 2 -p tcp -e 1040 -c 1 -i 15 -a 1 -x {4.0 2.0 8 ------- null}
- -t 3.03936 -s 1 -d 2 -p tcp -e 1040 -c 1 -i 15 -a 1 -x {4.0 2.0 8 ------- null}
h -t 3.03936 -s 1 -d 2 -p tcp -e 1040 -c 1 -i 15 -a 1 -x {4.0 2.0 -1 ------- null}
r -t 3.04352 -s 0 -d 1 -p tcp -e 1040 -c 1 -i 16 -a 1 -x {4.0 2.0 9 ------- null}
+ -t 3.04352 -s 1 -d 2 -p tcp -e 1040 -c 1 -i 16 -a 1 -x {4.0 2.0 9 ------- null}
- -t 3.04352 -s 1 -d 2 -p tcp -e 1040 -c 1 -i 16 -a 1 -x {4.0 2.0 9 ------- null}
h -t 3.04352 -s 1 -d 2 -p tcp -e 1040 -c 1 -i 16 -a 1 -x {4.0 2.0 -1 ------- null}
r -t 3.04768 -s 0 -d 1 -p tcp -e 1040 -c 1 -i 17 -a 1 -x {4.0 2.0 10 ------- null}
+ -t 3.04768 -s 1 -d 2 -p tcp -e 1040 -c 1 -i 17 -a 1 -x {4.0 2.0 10 ------- null}
- -t 3.04768 -s 1 -d 2 -p tcp -e 1040 -c 1 -i 17 -a 1 -x {4.0 2.0 10 ------- null}
h -t 3.04768 -s 1 -d 2 -p tcp -e 1040 -c 1 -i 17 -a 1 -x {4.0 2.0 -1 ------- null}
r -t 3.05184 -s 0 -d 1 -p tcp -e 1040 -c 1 -i 18 -a 1 -x {4.0 2.0 11 ------- null}
+ -t 3.05184 -s 1 -d 2 -p tcp -e 1040 -c 1 -i 18 -a 1 -x {4.0 2.0 11 ------- null}
- -t 3.05184 -s 1 -d 2 -p tcp -e 1040 -c 1 -i 18 -a 1 -x {4.0 2.0 11 ------- null}
h -t 3.05184 -s 1 -d 2 -p tcp -e 1040 -c 1 -i 18 -a 1 -x {4.0 2.0 -1 ------- null}
r -t 3.056 -s 0 -d 1 -p tcp -e 1040 -c 1 -i 19 -a 1 -x {4.0 2.0 12 ------- null}
+ -t 3.056 -s 1 -d 2 -p tcp -e 1040 -c 1 -i 19 -a 1 -x {4.0 2.0 12 ------- null}
- -t 3.056 -s 1 -d 2 -p tcp -e 1040 -c 1 -i 19 -a 1 -x {4.0 2.0 12 ------- null}
h -t 3.056 -s 1 -d 2 -p tcp -e 1040 -c 1 -i 19 -a 1 -x {4.0 2.0 -1 ------- null}
r -t 3.06016 -s 0 -d 1 -p tcp -e 1040 -c 1 -i 20 -a 1 -x {4.0 2.0 13 ------- null}
+ -t 3.06016 -s 1 -d 2 -p tcp -e 1040 -c 1 -i 20 -a 1 -x {4.0 2.0 13 ------- null}
- -t 3.06016 -s 1 -d 2 -p tcp -e 1040 -c 1 -i 20 -a 1 -x {4.0 2.0 13 ------- null}
h -t 3.06016 -s 1 -d 2 -p tcp -e 1040 -c 1 -i 20 -a 1 -x {4.0 2.0 -1 ------- null}
r -t 3.06432 -s 0 -d 1 -p tcp -e 1040 -c 1 -i 21 -a 1 -x {4.0 2.0 14 ------- null}
+ -t 3.06432 -s 1 -d 2 -p tcp -e 1040 -c 1 -i 21 -a 1 -x {4.0 2.0 14 ------- null}
- -t 3.06432 -s 1 -d 2 -p tcp -e 1040 -c 1 -i 21 -a 1 -x {4.0 2.0 14 ------- null}
h -t 3.06432 -s 1 -d 2 -p tcp -e 1040 -c 1 -i 21 -a 1 -x {4.0 2.0 -1 ------- null}
r -t 3.13936 -s 1 -d 2 -p tcp -e 1040 -c 1 -i 14 -a 1 -x {4.0 2.0 7 ------- null}
+ -t 3.13936 -s 2 -d 1 -p ack -e 40 -c 1 -i 22 -a 1 -x {2.0 4.0 7 ------- null}
- -t 3.13936 -s 2 -d 1 -p ack -e 40 -c 1 -i 22 -a 1 -x {2.0 4.0 7 ------- null}
h -t 3.13936 -s 2 -d 1 -p ack -e 40 -c 1 -i 22 -a 1 -x {2.0 4.0 -1 ------- null}
r -t 3.14352 -s 1 -d 2 -p tcp -e 1040 -c 1 -i 15 -a 1 -x {4.0 2.0 8 ------- null}
+ -t 3.14352 -s 2 -d 1 -p ack -e 40 -c 1 -i 23 -a 1 -x {2.0 4.0 8 ------- null}
- -t 3.14352 -s 2 -d 1 -p ack -e 40 -c 1 -i 23 -a 1 -x {2.0 4.0 8 ------- null}
h -t 3.14352 -s 2 -d 1 -p ack -e 40 -c 1 -i 23 -a 1 -x {2.0 4.0 -1 ------- null}
r -t 3.14768 -s 1 -d 2 -p tcp -e 1040 -c 1 -i 16 -a 1 -x {4.0 2.0 9 ------- null}
+ -t 3.14768 -s 2 -d 1 -p ack -e 40 -c 1 -i 24 -a 1 -x {2.0 4.0 9 ------- null}
- -t 3.14768 -s 2 -d 1 -p ack -e 40 -c 1 -i 24 -a 1 -x {2.0 4.0 9 ------- null}
h -t 3.14768 -s 2 -d 1 -p ack -e 40 -c 1 -i 24 -a 1 -x {2.0 4.0 -1 ------- null}
r -t 3.15184 -s 1 -d 2 -p tcp -e 1040 -c 1 -i 17 -a 1 -x {4.0 2.0 10 ------- null}
+ -t 3.15184 -s 2 -d 1 -p ack -e 40 -c 1 -i 25 -a 1 -x {2.0 4.0 10 ------- null}
- -t 3.15184 -s 2 -d 1 -p ack -e 40 -c 1 -i 25 -a 1 -x {2.0 4.0 10 ------- null}
h -t 3.15184 -s 2 -d 1 -p ack -e 40 -c 1 -i 25 -a 1 -x {2.0 4.0 -1 ------- null}
r -t 3.156 -s 1 -d 2 -p tcp -e 1040 -c 1 -i 18 -a 1 -x {4.0 2.0 11 ------- null}
+ -t 3.156 -s 2 -d 1 -p ack -e 40 -c 1 -i 26 -a 1 -x {2.0 4.0 11 ------- null}
- -t 3.156 -s 2 -d 1 -p ack -e 40 -c 1 -i 26 -a 1 -x {2.0 4.0 11 ------- null}
h -t 3.156 -s 2 -d 1 -p ack -e 40 -c 1 -i 26 -a 1 -x {2.0 4.0 -1 ------- null}
r -t 3.16016 -s 1 -d 2 -p tcp -e 1040 -c 1 -i 19 -a 1 -x {4.0 2.0 12 ------- null}
+ -t 3.16016 -s 2 -d 1 -p ack -e 40 -c 1 -i 27 -a 1 -x {2.0 4.0 12 ------- null}
- -t 3.16016 -s 2 -d 1 -p ack -e 40 -c 1 -i 27 -a 1 -x {2.0 4.0 12 ------- null}
h -t 3.16016 -s 2 -d 1 -p ack -e 40 -c 1 -i 27 -a 1 -x {2.0 4.0 -1 ------- null}
r -t 3.16432 -s 1 -d 2 -p tcp -e 1040 -c 1 -i 20 -a 1 -x {4.0 2.0 13 ------- null}
+ -t 3.16432 -s 2 -d 1 -p ack -e 40 -c 1 -i 28 -a 1 -x {2.0 4.0 13 ------- null}
- -t 3.16432 -s 2 -d 1 -p ack -e 40 -c 1 -i 28 -a 1 -x {2.0 4.0 13 ------- null}
h -t 3.16432 -s 2 -d 1 -p ack -e 40 -c 1 -i 28 -a 1 -x {2.0 4.0 -1 ------- null}
r -t 3.16848 -s 1 -d 2 -p tcp -e 1040 -c 1 -i 21 -a 1 -x {4.0 2.0 14 ------- null}
+ -t 3.16848 -s 2 -d 1 -p ack -e 40 -c 1 -i 29 -a 1 -x {2.0 4.0 14 ------- null}
- -t 3.16848 -s 2 -d 1 -p ack -e 40 -c 1 -i 29 -a 1 -x {2.0 4.0 14 ------- null}
h -t 3.16848 -s 2 -d 1 -p ack -e 40 -c 1 -i 29 -a 1 -x {2.0 4.0 -1 ------- null}
r -t 3.23952 -s 2 -d 1 -p ack -e 40 -c 1 -i 22 -a 1 -x {2.0 4.0 7 ------- null}
+ -t 3.23952 -s 1 -d 0 -p ack -e 40 -c 1 -i 22 -a 1 -x {2.0 4.0 7 ------- null}
- -t 3.23952 -s 1 -d 0 -p ack -e 40 -c 1 -i 22 -a 1 -x {2.0 4.0 7 ------- null}
h -t 3.23952 -s 1 -d 0 -p ack -e 40 -c 1 -i 22 -a 1 -x {2.0 4.0 -1 ------- null}
r -t 3.24368 -s 2 -d 1 -p ack -e 40 -c 1 -i 23 -a 1 -x {2.0 4.0 8 ------- null}
+ -t 3.24368 -s 1 -d 0 -p ack -e 40 -c 1 -i 23 -a 1 -x {2.0 4.0 8 ------- null}
- -t 3.24368 -s 1 -d 0 -p ack -e 40 -c 1 -i 23 -a 1 -x {2.0 4.0 8 ------- null}
h -t 3.24368 -s 1 -d 0 -p ack -e 40 -c 1 -i 23 -a 1 -x {2.0 4.0 -1 ------- null}
r -t 3.24784 -s 2 -d 1 -p ack -e 40 -c 1 -i 24 -a 1 -x {2.0 4.0 9 ------- null}
+ -t 3.24784 -s 1 -d 0 -p ack -e 40 -c 1 -i 24 -a 1 -x {2.0 4.0 9 ------- null}
- -t 3.24784 -s 1 -d 0 -p ack -e 40 -c 1 -i 24 -a 1 -x {2.0 4.0 9 ------- null}
h -t 3.24784 -s 1 -d 0 -p ack -e 40 -c 1 -i 24 -a 1 -x {2.0 4.0 -1 ------- null}
r -t 3.252 -s 2 -d 1 -p ack -e 40 -c 1 -i 25 -a 1 -x {2.0 4.0 10 ------- null}
+ -t 3.252 -s 1 -d 0 -p ack -e 40 -c 1 -i 25 -a 1 -x {2.0 4.0 10 ------- null}
- -t 3.252 -s 1 -d 0 -p ack -e 40 -c 1 -i 25 -a 1 -x {2.0 4.0 10 ------- null}
h -t 3.252 -s 1 -d 0 -p ack -e 40 -c 1 -i 25 -a 1 -x {2.0 4.0 -1 ------- null}
r -t 3.25616 -s 2 -d 1 -p ack -e 40 -c 1 -i 26 -a 1 -x {2.0 4.0 11 ------- null}
+ -t 3.25616 -s 1 -d 0 -p ack -e 40 -c 1 -i 26 -a 1 -x {2.0 4.0 11 ------- null}
- -t 3.25616 -s 1 -d 0 -p ack -e 40 -c 1 -i 26 -a 1 -x {2.0 4.0 11 ------- null}
h -t 3.25616 -s 1 -d 0 -p ack -e 40 -c 1 -i 26 -a 1 -x {2.0 4.0 -1 ------- null}
r -t 3.26032 -s 2 -d 1 -p ack -e 40 -c 1 -i 27 -a 1 -x {2.0 4.0 12 ------- null}
+ -t 3.26032 -s 1 -d 0 -p ack -e 40 -c 1 -i 27 -a 1 -x {2.0 4.0 12 ------- null}
- -t 3.26032 -s 1 -d 0 -p ack -e 40 -c 1 -i 27 -a 1 -x {2.0 4.0 12 ------- null}
h -t 3.26032 -s 1 -d 0 -p ack -e 40 -c 1 -i 27 -a 1 -x {2.0 4.0 -1 ------- null}
r -t 3.26448 -s 2 -d 1 -p ack -e 40 -c 1 -i 28 -a 1 -x {2.0 4.0 13 ------- null}
+ -t 3.26448 -s 1 -d 0 -p ack -e 40 -c 1 -i 28 -a 1 -x {2.0 4.0 13 ------- null}
- -t 3.26448 -s 1 -d 0 -p ack -e 40 -c 1 -i 28 -a 1 -x {2.0 4.0 13 ------- null}
h -t 3.26448 -s 1 -d 0 -p ack -e 40 -c 1 -i 28 -a 1 -x {2.0 4.0 -1 ------- null}
r -t 3.26864 -s 2 -d 1 -p ack -e 40 -c 1 -i 29 -a 1 -x {2.0 4.0 14 ------- null}
+ -t 3.26864 -s 1 -d 0 -p ack -e 40 -c 1 -i 29 -a 1 -x {2.0 4.0 14 ------- null}
- -t 3.26864 -s 1 -d 0 -p ack -e 40 -c 1 -i 29 -a 1 -x {2.0 4.0 14 ------- null}
h -t 3.26864 -s 1 -d 0 -p ack -e 40 -c 1 -i 29 -a 1 -x {2.0 4.0 -1 ------- null}
r -t 3.33968 -s 1 -d 0 -p ack -e 40 -c 1 -i 22 -a 1 -x {2.0 4.0 7 ------- null}
+ -t 3.33968 -s 0 -d 4 -p ack -e 40 -c 1 -i 22 -a 1 -x {2.0 4.0 7 ------- null}
- -t 3.33968 -s 0 -d 4 -p ack -e 40 -c 1 -i 22 -a 1 -x {2.0 4.0 7 ------- null}
h -t 3.33968 -s 0 -d 4 -p ack -e 40 -c 1 -i 22 -a 1 -x {2.0 4.0 -1 ------- null}
r -t 3.34384 -s 1 -d 0 -p ack -e 40 -c 1 -i 23 -a 1 -x {2.0 4.0 8 ------- null}
+ -t 3.34384 -s 0 -d 4 -p ack -e 40 -c 1 -i 23 -a 1 -x {2.0 4.0 8 ------- null}
- -t 3.34384 -s 0 -d 4 -p ack -e 40 -c 1 -i 23 -a 1 -x {2.0 4.0 8 ------- null}
h -t 3.34384 -s 0 -d 4 -p ack -e 40 -c 1 -i 23 -a 1 -x {2.0 4.0 -1 ------- null}
r -t 3.348 -s 1 -d 0 -p ack -e 40 -c 1 -i 24 -a 1 -x {2.0 4.0 9 ------- null}
+ -t 3.348 -s 0 -d 4 -p ack -e 40 -c 1 -i 24 -a 1 -x {2.0 4.0 9 ------- null}
- -t 3.348 -s 0 -d 4 -p ack -e 40 -c 1 -i 24 -a 1 -x {2.0 4.0 9 ------- null}
h -t 3.348 -s 0 -d 4 -p ack -e 40 -c 1 -i 24 -a 1 -x {2.0 4.0 -1 ------- null}
r -t 3.35216 -s 1 -d 0 -p ack -e 40 -c 1 -i 25 -a 1 -x {2.0 4.0 10 ------- null}
+ -t 3.35216 -s 0 -d 4 -p ack -e 40 -c 1 -i 25 -a 1 -x {2.0 4.0 10 ------- null}
- -t 3.35216 -s 0 -d 4 -p ack -e 40 -c 1 -i 25 -a 1 -x {2.0 4.0 10 ------- null}
h -t 3.35216 -s 0 -d 4 -p ack -e 40 -c 1 -i 25 -a 1 -x {2.0 4.0 -1 ------- null}
r -t 3.35632 -s 1 -d 0 -p ack -e 40 -c 1 -i 26 -a 1 -x {2.0 4.0 11 ------- null}
+ -t 3.35632 -s 0 -d 4 -p ack -e 40 -c 1 -i 26 -a 1 -x {2.0 4.0 11 ------- null}
- -t 3.35632 -s 0 -d 4 -p ack -e 40 -c 1 -i 26 -a 1 -x {2.0 4.0 11 ------- null}
h -t 3.35632 -s 0 -d 4 -p ack -e 40 -c 1 -i 26 -a 1 -x {2.0 4.0 -1 ------- null}
r -t 3.36048 -s 1 -d 0 -p ack -e 40 -c 1 -i 27 -a 1 -x {2.0 4.0 12 ------- null}
+ -t 3.36048 -s 0 -d 4 -p ack -e 40 -c 1 -i 27 -a 1 -x {2.0 4.0 12 ------- null}
- -t 3.36048 -s 0 -d 4 -p ack -e 40 -c 1 -i 27 -a 1 -x {2.0 4.0 12 ------- null}
h -t 3.36048 -s 0 -d 4 -p ack -e 40 -c 1 -i 27 -a 1 -x {2.0 4.0 -1 ------- null}
r -t 3.36464 -s 1 -d 0 -p ack -e 40 -c 1 -i 28 -a 1 -x {2.0 4.0 13 ------- null}
+ -t 3.36464 -s 0 -d 4 -p ack -e 40 -c 1 -i 28 -a 1 -x {2.0 4.0 13 ------- null}
- -t 3.36464 -s 0 -d 4 -p ack -e 40 -c 1 -i 28 -a 1 -x {2.0 4.0 13 ------- null}
h -t 3.36464 -s 0 -d 4 -p ack -e 40 -c 1 -i 28 -a 1 -x {2.0 4.0 -1 ------- null}
r -t 3.3688 -s 1 -d 0 -p ack -e 40 -c 1 -i 29 -a 1 -x {2.0 4.0 14 ------- null}
+ -t 3.3688 -s 0 -d 4 -p ack -e 40 -c 1 -i 29 -a 1 -x {2.0 4.0 14 ------- null}
- -t 3.3688 -s 0 -d 4 -p ack -e 40 -c 1 -i 29 -a 1 -x {2.0 4.0 14 ------- null}
h -t 3.3688 -s 0 -d 4 -p ack -e 40 -c 1 -i 29 -a 1 -x {2.0 4.0 -1 ------- null}
r -t 3.43984 -s 0 -d 4 -p ack -e 40 -c 1 -i 22 -a 1 -x {2.0 4.0 7 ------- null}
+ -t 3.43984 -s 4 -d 0 -p tcp -e 1040 -c 1 -i 30 -a 1 -x {4.0 2.0 15 ------- null}
- -t 3.43984 -s 4 -d 0 -p tcp -e 1040 -c 1 -i 30 -a 1 -x {4.0 2.0 15 ------- null}
h -t 3.43984 -s 4 -d 0 -p tcp -e 1040 -c 1 -i 30 -a 1 -x {4.0 2.0 -1 ------- null}
+ -t 3.43984 -s 4 -d 0 -p tcp -e 1040 -c 1 -i 31 -a 1 -x {4.0 2.0 16 ------- null}
r -t 3.444 -s 0 -d 4 -p ack -e 40 -c 1 -i 23 -a 1 -x {2.0 4.0 8 ------- null}
+ -t 3.444 -s 4 -d 0 -p tcp -e 1040 -c 1 -i 32 -a 1 -x {4.0 2.0 17 ------- null}
+ -t 3.444 -s 4 -d 0 -p tcp -e 1040 -c 1 -i 33 -a 1 -x {4.0 2.0 18 ------- null}
- -t 3.444 -s 4 -d 0 -p tcp -e 1040 -c 1 -i 31 -a 1 -x {4.0 2.0 16 ------- null}
h -t 3.444 -s 4 -d 0 -p tcp -e 1040 -c 1 -i 31 -a 1 -x {4.0 2.0 -1 ------- null}
r -t 3.44816 -s 0 -d 4 -p ack -e 40 -c 1 -i 24 -a 1 -x {2.0 4.0 9 ------- null}