+ 1 4 0 tcp 40 ------- 1 4.0 2.0 0 0
- 1 4 0 tcp 40 ------- 1 4.0 2.0 0 0
r 1.10016 4 0 tcp 40 ------- 1 4.0 2.0 0 0
+ 1.10016 0 1 tcp 40 ------- 1 4.0 2.0 0 0
- 1.10016 0 1 tcp 40 ------- 1 4.0 2.0 0 0
r 1.20032 0 1 tcp 40 ------- 1 4.0 2.0 0 0
+ 1.20032 1 2 tcp 40 ------- 1 4.0 2.0 0 0
- 1.20032 1 2 tcp 40 ------- 1 4.0 2.0 0 0
r 1.30048 1 2 tcp 40 ------- 1 4.0 2.0 0 0
+ 1.30048 2 1 ack 40 ------- 1 2.0 4.0 0 1
- 1.30048 2 1 ack 40 ------- 1 2.0 4.0 0 1
r 1.40064 2 1 ack 40 ------- 1 2.0 4.0 0 1
+ 1.40064 1 0 ack 40 ------- 1 2.0 4.0 0 1
- 1.40064 1 0 ack 40 ------- 1 2.0 4.0 0 1
r 1.5008 1 0 ack 40 ------- 1 2.0 4.0 0 1
+ 1.5008 0 4 ack 40 ------- 1 2.0 4.0 0 1
- 1.5008 0 4 ack 40 ------- 1 2.0 4.0 0 1
r 1.60096 0 4 ack 40 ------- 1 2.0 4.0 0 1
+ 1.60096 4 0 tcp 1040 ------- 1 4.0 2.0 1 2
- 1.60096 4 0 tcp 1040 ------- 1 4.0 2.0 1 2
+ 1.60096 4 0 tcp 1040 ------- 1 4.0 2.0 2 3
- 1.60512 4 0 tcp 1040 ------- 1 4.0 2.0 2 3
r 1.70512 4 0 tcp 1040 ------- 1 4.0 2.0 1 2
+ 1.70512 0 1 tcp 1040 ------- 1 4.0 2.0 1 2
- 1.70512 0 1 tcp 1040 ------- 1 4.0 2.0 1 2
r 1.70928 4 0 tcp 1040 ------- 1 4.0 2.0 2 3
+ 1.70928 0 1 tcp 1040 ------- 1 4.0 2.0 2 3
- 1.70928 0 1 tcp 1040 ------- 1 4.0 2.0 2 3
r 1.80928 0 1 tcp 1040 ------- 1 4.0 2.0 1 2
+ 1.80928 1 2 tcp 1040 ------- 1 4.0 2.0 1 2
- 1.80928 1 2 tcp 1040 ------- 1 4.0 2.0 1 2
r 1.81344 0 1 tcp 1040 ------- 1 4.0 2.0 2 3
+ 1.81344 1 2 tcp 1040 ------- 1 4.0 2.0 2 3
- 1.81344 1 2 tcp 1040 ------- 1 4.0 2.0 2 3
r 1.91344 1 2 tcp 1040 ------- 1 4.0 2.0 1 2
+ 1.91344 2 1 ack 40 ------- 1 2.0 4.0 1 4
- 1.91344 2 1 ack 40 ------- 1 2.0 4.0 1 4
r 1.9176 1 2 tcp 1040 ------- 1 4.0 2.0 2 3
+ 1.9176 2 1 ack 40 ------- 1 2.0 4.0 2 5
- 1.9176 2 1 ack 40 ------- 1 2.0 4.0 2 5
r 2.0136 2 1 ack 40 ------- 1 2.0 4.0 1 4
+ 2.0136 1 0 ack 40 ------- 1 2.0 4.0 1 4
- 2.0136 1 0 ack 40 ------- 1 2.0 4.0 1 4
r 2.01776 2 1 ack 40 ------- 1 2.0 4.0 2 5
+ 2.01776 1 0 ack 40 ------- 1 2.0 4.0 2 5
- 2.01776 1 0 ack 40 ------- 1 2.0 4.0 2 5
r 2.11376 1 0 ack 40 ------- 1 2.0 4.0 1 4
+ 2.11376 0 4 ack 40 ------- 1 2.0 4.0 1 4
- 2.11376 0 4 ack 40 ------- 1 2.0 4.0 1 4
r 2.11792 1 0 ack 40 ------- 1 2.0 4.0 2 5
+ 2.11792 0 4 ack 40 ------- 1 2.0 4.0 2 5
- 2.11792 0 4 ack 40 ------- 1 2.0 4.0 2 5
r 2.21392 0 4 ack 40 ------- 1 2.0 4.0 1 4
+ 2.21392 4 0 tcp 1040 ------- 1 4.0 2.0 3 6
- 2.21392 4 0 tcp 1040 ------- 1 4.0 2.0 3 6
+ 2.21392 4 0 tcp 1040 ------- 1 4.0 2.0 4 7
r 2.21808 0 4 ack 40 ------- 1 2.0 4.0 2 5
+ 2.21808 4 0 tcp 1040 ------- 1 4.0 2.0 5 8
+ 2.21808 4 0 tcp 1040 ------- 1 4.0 2.0 6 9
- 2.21808 4 0 tcp 1040 ------- 1 4.0 2.0 4 7
- 2.22224 4 0 tcp 1040 ------- 1 4.0 2.0 5 8
- 2.2264 4 0 tcp 1040 ------- 1 4.0 2.0 6 9
r 2.31808 4 0 tcp 1040 ------- 1 4.0 2.0 3 6
+ 2.31808 0 1 tcp 1040 ------- 1 4.0 2.0 3 6
- 2.31808 0 1 tcp 1040 ------- 1 4.0 2.0 3 6
r 2.32224 4 0 tcp 1040 ------- 1 4.0 2.0 4 7
+ 2.32224 0 1 tcp 1040 ------- 1 4.0 2.0 4 7
- 2.32224 0 1 tcp 1040 ------- 1 4.0 2.0 4 7
r 2.3264 4 0 tcp 1040 ------- 1 4.0 2.0 5 8
+ 2.3264 0 1 tcp 1040 ------- 1 4.0 2.0 5 8
- 2.3264 0 1 tcp 1040 ------- 1 4.0 2.0 5 8
r 2.33056 4 0 tcp 1040 ------- 1 4.0 2.0 6 9
+ 2.33056 0 1 tcp 1040 ------- 1 4.0 2.0 6 9
- 2.33056 0 1 tcp 1040 ------- 1 4.0 2.0 6 9
r 2.42224 0 1 tcp 1040 ------- 1 4.0 2.0 3 6
+ 2.42224 1 2 tcp 1040 ------- 1 4.0 2.0 3 6
- 2.42224 1 2 tcp 1040 ------- 1 4.0 2.0 3 6
r 2.4264 0 1 tcp 1040 ------- 1 4.0 2.0 4 7
+ 2.4264 1 2 tcp 1040 ------- 1 4.0 2.0 4 7
- 2.4264 1 2 tcp 1040 ------- 1 4.0 2.0 4 7
r 2.43056 0 1 tcp 1040 ------- 1 4.0 2.0 5 8
+ 2.43056 1 2 tcp 1040 ------- 1 4.0 2.0 5 8
- 2.43056 1 2 tcp 1040 ------- 1 4.0 2.0 5 8
r 2.43472 0 1 tcp 1040 ------- 1 4.0 2.0 6 9
+ 2.43472 1 2 tcp 1040 ------- 1 4.0 2.0 6 9
- 2.43472 1 2 tcp 1040 ------- 1 4.0 2.0 6 9
r 2.5264 1 2 tcp 1040 ------- 1 4.0 2.0 3 6
+ 2.5264 2 1 ack 40 ------- 1 2.0 4.0 3 10
- 2.5264 2 1 ack 40 ------- 1 2.0 4.0 3 10
r 2.53056 1 2 tcp 1040 ------- 1 4.0 2.0 4 7
+ 2.53056 2 1 ack 40 ------- 1 2.0 4.0 4 11
- 2.53056 2 1 ack 40 ------- 1 2.0 4.0 4 11
r 2.53472 1 2 tcp 1040 ------- 1 4.0 2.0 5 8
+ 2.53472 2 1 ack 40 ------- 1 2.0 4.0 5 12
- 2.53472 2 1 ack 40 ------- 1 2.0 4.0 5 12
r 2.53888 1 2 tcp 1040 ------- 1 4.0 2.0 6 9
+ 2.53888 2 1 ack 40 ------- 1 2.0 4.0 6 13
- 2.53888 2 1 ack 40 ------- 1 2.0 4.0 6 13
r 2.62656 2 1 ack 40 ------- 1 2.0 4.0 3 10
+ 2.62656 1 0 ack 40 ------- 1 2.0 4.0 3 10
- 2.62656 1 0 ack 40 ------- 1 2.0 4.0 3 10
r 2.63072 2 1 ack 40 ------- 1 2.0 4.0 4 11
+ 2.63072 1 0 ack 40 ------- 1 2.0 4.0 4 11
- 2.63072 1 0 ack 40 ------- 1 2.0 4.0 4 11
r 2.63488 2 1 ack 40 ------- 1 2.0 4.0 5 12
+ 2.63488 1 0 ack 40 ------- 1 2.0 4.0 5 12
- 2.63488 1 0 ack 40 ------- 1 2.0 4.0 5 12
r 2.63904 2 1 ack 40 ------- 1 2.0 4.0 6 13
+ 2.63904 1 0 ack 40 ------- 1 2.0 4.0 6 13
- 2.63904 1 0 ack 40 ------- 1 2.0 4.0 6 13
r 2.72672 1 0 ack 40 ------- 1 2.0 4.0 3 10
+ 2.72672 0 4 ack 40 ------- 1 2.0 4.0 3 10
- 2.72672 0 4 ack 40 ------- 1 2.0 4.0 3 10
r 2.73088 1 0 ack 40 ------- 1 2.0 4.0 4 11
+ 2.73088 0 4 ack 40 ------- 1 2.0 4.0 4 11
- 2.73088 0 4 ack 40 ------- 1 2.0 4.0 4 11
r 2.73504 1 0 ack 40 ------- 1 2.0 4.0 5 12
+ 2.73504 0 4 ack 40 ------- 1 2.0 4.0 5 12
- 2.73504 0 4 ack 40 ------- 1 2.0 4.0 5 12
r 2.7392 1 0 ack 40 ------- 1 2.0 4.0 6 13
+ 2.7392 0 4 ack 40 ------- 1 2.0 4.0 6 13
- 2.7392 0 4 ack 40 ------- 1 2.0 4.0 6 13
r 2.82688 0 4 ack 40 ------- 1 2.0 4.0 3 10
+ 2.82688 4 0 tcp 1040 ------- 1 4.0 2.0 7 14
- 2.82688 4 0 tcp 1040 ------- 1 4.0 2.0 7 14
+ 2.82688 4 0 tcp 1040 ------- 1 4.0 2.0 8 15
r 2.83104 0 4 ack 40 ------- 1 2.0 4.0 4 11
+ 2.83104 4 0 tcp 1040 ------- 1 4.0 2.0 9 16
+ 2.83104 4 0 tcp 1040 ------- 1 4.0 2.0 10 17
- 2.83104 4 0 tcp 1040 ------- 1 4.0 2.0 8 15
r 2.8352 0 4 ack 40 ------- 1 2.0 4.0 5 12
+ 2.8352 4 0 tcp 1040 ------- 1 4.0 2.0 11 18
+ 2.8352 4 0 tcp 1040 ------- 1 4.0 2.0 12 19
- 2.8352 4 0 tcp 1040 ------- 1 4.0 2.0 9 16
r 2.83936 0 4 ack 40 ------- 1 2.0 4.0 6 13
+ 2.83936 4 0 tcp 1040 ------- 1 4.0 2.0 13 20
+ 2.83936 4 0 tcp 1040 ------- 1 4.0 2.0 14 21
- 2.83936 4 0 tcp 1040 ------- 1 4.0 2.0 10 17
- 2.84352 4 0 tcp 1040 ------- 1 4.0 2.0 11 18
- 2.84768 4 0 tcp 1040 ------- 1 4.0 2.0 12 19
- 2.85184 4 0 tcp 1040 ------- 1 4.0 2.0 13 20
- 2.856 4 0 tcp 1040 ------- 1 4.0 2.0 14 21
r 2.93104 4 0 tcp 1040 ------- 1 4.0 2.0 7 14
+ 2.93104 0 1 tcp 1040 ------- 1 4.0 2.0 7 14
- 2.93104 0 1 tcp 1040 ------- 1 4.0 2.0 7 14
r 2.9352 4 0 tcp 1040 ------- 1 4.0 2.0 8 15
+ 2.9352 0 1 tcp 1040 ------- 1 4.0 2.0 8 15
- 2.9352 0 1 tcp 1040 ------- 1 4.0 2.0 8 15
r 2.93936 4 0 tcp 1040 ------- 1 4.0 2.0 9 16
+ 2.93936 0 1 tcp 1040 ------- 1 4.0 2.0 9 16
- 2.93936 0 1 tcp 1040 ------- 1 4.0 2.0 9 16
r 2.94352 4 0 tcp 1040 ------- 1 4.0 2.0 10 17
+ 2.94352 0 1 tcp 1040 ------- 1 4.0 2.0 10 17
- 2.94352 0 1 tcp 1040 ------- 1 4.0 2.0 10 17
r 2.94768 4 0 tcp 1040 ------- 1 4.0 2.0 11 18
+ 2.94768 0 1 tcp 1040 ------- 1 4.0 2.0 11 18
- 2.94768 0 1 tcp 1040 ------- 1 4.0 2.0 11 18
r 2.95184 4 0 tcp 1040 ------- 1 4.0 2.0 12 19
+ 2.95184 0 1 tcp 1040 ------- 1 4.0 2.0 12 19
- 2.95184 0 1 tcp 1040 ------- 1 4.0 2.0 12 19
r 2.956 4 0 tcp 1040 ------- 1 4.0 2.0 13 20
+ 2.956 0 1 tcp 1040 ------- 1 4.0 2.0 13 20
- 2.956 0 1 tcp 1040 ------- 1 4.0 2.0 13 20
r 2.96016 4 0 tcp 1040 ------- 1 4.0 2.0 14 21
+ 2.96016 0 1 tcp 1040 ------- 1 4.0 2.0 14 21
- 2.96016 0 1 tcp 1040 ------- 1 4.0 2.0 14 21
r 3.0352 0 1 tcp 1040 ------- 1 4.0 2.0 7 14
+ 3.0352 1 2 tcp 1040 ------- 1 4.0 2.0 7 14
- 3.0352 1 2 tcp 1040 ------- 1 4.0 2.0 7 14
r 3.03936 0 1 tcp 1040 ------- 1 4.0 2.0 8 15
+ 3.03936 1 2 tcp 1040 ------- 1 4.0 2.0 8 15
- 3.03936 1 2 tcp 1040 ------- 1 4.0 2.0 8 15
r 3.04352 0 1 tcp 1040 ------- 1 4.0 2.0 9 16
+ 3.04352 1 2 tcp 1040 ------- 1 4.0 2.0 9 16
- 3.04352 1 2 tcp 1040 ------- 1 4.0 2.0 9 16
r 3.04768 0 1 tcp 1040 ------- 1 4.0 2.0 10 17
+ 3.04768 1 2 tcp 1040 ------- 1 4.0 2.0 10 17
- 3.04768 1 2 tcp 1040 ------- 1 4.0 2.0 10 17
r 3.05184 0 1 tcp 1040 ------- 1 4.0 2.0 11 18
+ 3.05184 1 2 tcp 1040 ------- 1 4.0 2.0 11 18
- 3.05184 1 2 tcp 1040 ------- 1 4.0 2.0 11 18
r 3.056 0 1 tcp 1040 ------- 1 4.0 2.0 12 19
+ 3.056 1 2 tcp 1040 ------- 1 4.0 2.0 12 19
- 3.056 1 2 tcp 1040 ------- 1 4.0 2.0 12 19
r 3.06016 0 1 tcp 1040 ------- 1 4.0 2.0 13 20
+ 3.06016 1 2 tcp 1040 ------- 1 4.0 2.0 13 20
- 3.06016 1 2 tcp 1040 ------- 1 4.0 2.0 13 20
r 3.06432 0 1 tcp 1040 ------- 1 4.0 2.0 14 21
+ 3.06432 1 2 tcp 1040 ------- 1 4.0 2.0 14 21
- 3.06432 1 2 tcp 1040 ------- 1 4.0 2.0 14 21
r 3.13936 1 2 tcp 1040 ------- 1 4.0 2.0 7 14
+ 3.13936 2 1 ack 40 ------- 1 2.0 4.0 7 22
- 3.13936 2 1 ack 40 ------- 1 2.0 4.0 7 22
r 3.14352 1 2 tcp 1040 ------- 1 4.0 2.0 8 15
+ 3.14352 2 1 ack 40 ------- 1 2.0 4.0 8 23
- 3.14352 2 1 ack 40 ------- 1 2.0 4.0 8 23
r 3.14768 1 2 tcp 1040 ------- 1 4.0 2.0 9 16
+ 3.14768 2 1 ack 40 ------- 1 2.0 4.0 9 24
- 3.14768 2 1 ack 40 ------- 1 2.0 4.0 9 24
r 3.15184 1 2 tcp 1040 ------- 1 4.0 2.0 10 17
+ 3.15184 2 1 ack 40 ------- 1 2.0 4.0 10 25
- 3.15184 2 1 ack 40 ------- 1 2.0 4.0 10 25
r 3.156 1 2 tcp 1040 ------- 1 4.0 2.0 11 18
+ 3.156 2 1 ack 40 ------- 1 2.0 4.0 11 26
- 3.156 2 1 ack 40 ------- 1 2.0 4.0 11 26
r 3.16016 1 2 tcp 1040 ------- 1 4.0 2.0 12 19
+ 3.16016 2 1 ack 40 ------- 1 2.0 4.0 12 27
- 3.16016 2 1 ack 40 ------- 1 2.0 4.0 12 27
r 3.16432 1 2 tcp 1040 ------- 1 4.0 2.0 13 20
+ 3.16432 2 1 ack 40 ------- 1 2.0 4.0 13 28
- 3.16432 2 1 ack 40 ------- 1 2.0 4.0 13 28
r 3.16848 1 2 tcp 1040 ------- 1 4.0 2.0 14 21
+ 3.16848 2 1 ack 40 ------- 1 2.0 4.0 14 29
- 3.16848 2 1 ack 40 ------- 1 2.0 4.0 14 29
r 3.23952 2 1 ack 40 ------- 1 2.0 4.0 7 22
+ 3.23952 1 0 ack 40 ------- 1 2.0 4.0 7 22
- 3.23952 1 0 ack 40 ------- 1 2.0 4.0 7 22
r 3.24368 2 1 ack 40 ------- 1 2.0 4.0 8 23
+ 3.24368 1 0 ack 40 ------- 1 2.0 4.0 8 23
- 3.24368 1 0 ack 40 ------- 1 2.0 4.0 8 23
r 3.24784 2 1 ack 40 ------- 1 2.0 4.0 9 24
+ 3.24784 1 0 ack 40 ------- 1 2.0 4.0 9 24
- 3.24784 1 0 ack 40 ------- 1 2.0 4.0 9 24
r 3.252 2 1 ack 40 ------- 1 2.0 4.0 10 25
+ 3.252 1 0 ack 40 ------- 1 2.0 4.0 10 25
- 3.252 1 0 ack 40 ------- 1 2.0 4.0 10 25
r 3.25616 2 1 ack 40 ------- 1 2.0 4.0 11 26
+ 3.25616 1 0 ack 40 ------- 1 2.0 4.0 11 26
- 3.25616 1 0 ack 40 ------- 1 2.0 4.0 11 26
r 3.26032 2 1 ack 40 ------- 1 2.0 4.0 12 27
+ 3.26032 1 0 ack 40 ------- 1 2.0 4.0 12 27
- 3.26032 1 0 ack 40 ------- 1 2.0 4.0 12 27
r 3.26448 2 1 ack 40 ------- 1 2.0 4.0 13 28
+ 3.26448 1 0 ack 40 ------- 1 2.0 4.0 13 28
- 3.26448 1 0 ack 40 ------- 1 2.0 4.0 13 28
r 3.26864 2 1 ack 40 ------- 1 2.0 4.0 14 29
+ 3.26864 1 0 ack 40 ------- 1 2.0 4.0 14 29
- 3.26864 1 0 ack 40 ------- 1 2.0 4.0 14 29
r 3.33968 1 0 ack 40 ------- 1 2.0 4.0 7 22
+ 3.33968 0 4 ack 40 ------- 1 2.0 4.0 7 22
- 3.33968 0 4 ack 40 ------- 1 2.0 4.0 7 22
r 3.34384 1 0 ack 40 ------- 1 2.0 4.0 8 23
+ 3.34384 0 4 ack 40 ------- 1 2.0 4.0 8 23
- 3.34384 0 4 ack 40 ------- 1 2.0 4.0 8 23
r 3.348 1 0 ack 40 ------- 1 2.0 4.0 9 24
+ 3.348 0 4 ack 40 ------- 1 2.0 4.0 9 24
- 3.348 0 4 ack 40 ------- 1 2.0 4.0 9 24
r 3.35216 1 0 ack 40 ------- 1 2.0 4.0 10 25
+ 3.35216 0 4 ack 40 ------- 1 2.0 4.0 10 25
- 3.35216 0 4 ack 40 ------- 1 2.0 4.0 10 25
r 3.35632 1 0 ack 40 ------- 1 2.0 4.0 11 26
+ 3.35632 0 4 ack 40 ------- 1 2.0 4.0 11 26
- 3.35632 0 4 ack 40 ------- 1 2.0 4.0 11 26
r 3.36048 1 0 ack 40 ------- 1 2.0 4.0 12 27
+ 3.36048 0 4 ack 40 ------- 1 2.0 4.0 12 27
- 3.36048 0 4 ack 40 ------- 1 2.0 4.0 12 27
r 3.36464 1 0 ack 40 ------- 1 2.0 4.0 13 28
+ 3.36464 0 4 ack 40 ------- 1 2.0 4.0 13 28
- 3.36464 0 4 ack 40 ------- 1 2.0 4.0 13 28
r 3.3688 1 0 ack 40 ------- 1 2.0 4.0 14 29
+ 3.3688 0 4 ack 40 ------- 1 2.0 4.0 14 29
- 3.3688 0 4 ack 40 ------- 1 2.0 4.0 14 29
r 3.43984 0 4 ack 40 ------- 1 2.0 4.0 7 22
+ 3.43984 4 0 tcp 1040 ------- 1 4.0 2.0 15 30
- 3.43984 4 0 tcp 1040 ------- 1 4.0 2.0 15 30
+ 3.43984 4 0 tcp 1040 ------- 1 4.0 2.0 16 31
r 3.444 0 4 ack 40 ------- 1 2.0 4.0 8 23
+ 3.444 4 0 tcp 1040 ------- 1 4.0 2.0 17 32
+ 3.444 4 0 tcp 1040 ------- 1 4.0 2.0 18 33
- 3.444 4 0 tcp 1040 ------- 1 4.0 2.0 16 31
r 3.44816 0 4 ack 40 ------- 1 2.0 4.0 9 24
+ 3.44816 4 0 tcp 1040 ------- 1 4.0 2.0 19 34
+ 3.44816 4 0 tcp 1040 ------- 1 4.0 2.0 20 35
- 3.44816 4 0 tcp 1040 ------- 1 4.0 2.0 17 32
r 3.45232 0 4 ack 40 ------- 1 2.0 4.0 10 25
+ 3.45232 4 0 tcp 1040 ------- 1 4.0 2.0 21 36
+ 3.45232 4 0 tcp 1040 ------- 1 4.0 2.0 22 37
- 3.45232 4 0 tcp 1040 ------- 1 4.0 2.0 18 33
r 3.45648 0 4 ack 40 ------- 1 2.0 4.0 11 26
+ 3.45648 4 0 tcp 1040 ------- 1 4.0 2.0 23 38
+ 3.45648 4 0 tcp 1040 ------- 1 4.0 2.0 24 39
- 3.45648 4 0 tcp 1040 ------- 1 4.0 2.0 19 34
r 3.46064 0 4 ack 40 ------- 1 2.0 4.0 12 27
+ 3.46064 4 0 tcp 1040 ------- 1 4.0 2.0 25 40
+ 3.46064 4 0 tcp 1040 ------- 1 4.0 2.0 26 41
- 3.46064 4 0 tcp 1040 ------- 1 4.0 2.0 20 35
r 3.4648 0 4 ack 40 ------- 1 2.0 4.0 13 28
+ 3.4648 4 0 tcp 1040 ------- 1 4.0 2.0 27 42
+ 3.4648 4 0 tcp 1040 ------- 1 4.0 2.0 28 43
- 3.4648 4 0 tcp 1040 ------- 1 4.0 2.0 21 36
r 3.46896 0 4 ack 40 ------- 1 2.0 4.0 14 29
+ 3.46896 4 0 tcp 1040 ------- 1 4.0 2.0 29 44
+ 3.46896 4 0 tcp 1040 ------- 1 4.0 2.0 30 45
- 3.46896 4 0 tcp 1040 ------- 1 4.0 2.0 22 37
- 3.47312 4 0 tcp 1040 ------- 1 4.0 2.0 23 38
- 3.47728 4 0 tcp 1040 ------- 1 4.0 2.0 24 39
- 3.48144 4 0 tcp 1040 ------- 1 4.0 2.0 25 40
- 3.4856 4 0 tcp 1040 ------- 1 4.0 2.0 26 41
- 3.48976 4 0 tcp 1040 ------- 1 4.0 2.0 27 42
- 3.49392 4 0 tcp 1040 ------- 1 4.0 2.0 28 43
- 3.49808 4 0 tcp 1040 ------- 1 4.0 2.0 29 44
- 3.50224 4 0 tcp 1040 ------- 1 4.0 2.0 30 45
r 3.544 4 0 tcp 1040 ------- 1 4.0 2.0 15 30
+ 3.544 0 1 tcp 1040 ------- 1 4.0 2.0 15 30
- 3.544 0 1 tcp 1040 ------- 1 4.0 2.0 15 30
r 3.54816 4 0 tcp 1040 ------- 1 4.0 2.0 16 31
+ 3.54816 0 1 tcp 1040 ------- 1 4.0 2.0 16 31
- 3.54816 0 1 tcp 1040 ------- 1 4.0 2.0 16 31
r 3.55232 4 0 tcp 1040 ------- 1 4.0 2.0 17 32
+ 3.55232 0 1 tcp 1040 ------- 1 4.0 2.0 17 32
- 3.55232 0 1 tcp 1040 ------- 1 4.0 2.0 17 32
r 3.55648 4 0 tcp 1040 ------- 1 4.0 2.0 18 33
+ 3.55648 0 1 tcp 1040 ------- 1 4.0 2.0 18 33
- 3.55648 0 1 tcp 1040 ------- 1 4.0 2.0 18 33
r 3.56064 4 0 tcp 1040 ------- 1 4.0 2.0 19 34
+ 3.56064 0 1 tcp 1040 ------- 1 4.0 2.0 19 34
- 3.56064 0 1 tcp 1040 ------- 1 4.0 2.0 19 34
r 3.5648 4 0 tcp 1040 ------- 1 4.0 2.0 20 35
+ 3.5648 0 1 tcp 1040 ------- 1 4.0 2.0 20 35
- 3.5648 0 1 tcp 1040 ------- 1 4.0 2.0 20 35
r 3.56896 4 0 tcp 1040 ------- 1 4.0 2.0 21 36
+ 3.56896 0 1 tcp 1040 ------- 1 4.0 2.0 21 36
- 3.56896 0 1 tcp 1040 ------- 1 4.0 2.0 21 36
r 3.57312 4 0 tcp 1040 ------- 1 4.0 2.0 22 37
+ 3.57312 0 1 tcp 1040 ------- 1 4.0 2.0 22 37
- 3.57312 0 1 tcp 1040 ------- 1 4.0 2.0 22 37
r 3.57728 4 0 tcp 1040 ------- 1 4.0 2.0 23 38
+ 3.57728 0 1 tcp 1040 ------- 1 4.0 2.0 23 38
- 3.57728 0 1 tcp 1040 ------- 1 4.0 2.0 23 38
r 3.58144 4 0 tcp 1040 ------- 1 4.0 2.0 24 39
+ 3.58144 0 1 tcp 1040 ------- 1 4.0 2.0 24 39
- 3.58144 0 1 tcp 1040 ------- 1 4.0 2.0 24 39
r 3.5856 4 0 tcp 1040 ------- 1 4.0 2.0 25 40
+ 3.5856 0 1 tcp 1040 ------- 1 4.0 2.0 25 40
- 3.5856 0 1 tcp 1040 ------- 1 4.0 2.0 25 40
r 3.58976 4 0 tcp 1040 ------- 1 4.0 2.0 26 41
+ 3.58976 0 1 tcp 1040 ------- 1 4.0 2.0 26 41
- 3.58976 0 1 tcp 1040 ------- 1 4.0 2.0 26 41
r 3.59392 4 0 tcp 1040 ------- 1 4.0 2.0 27 42
+ 3.59392 0 1 tcp 1040 ------- 1 4.0 2.0 27 42
- 3.59392 0 1 tcp 1040 ------- 1 4.0 2.0 27 42
r 3.59808 4 0 tcp 1040 ------- 1 4.0 2.0 28 43
+ 3.59808 0 1 tcp 1040 ------- 1 4.0 2.0 28 43
- 3.59808 0 1 tcp 1040 ------- 1 4.0 2.0 28 43
r 3.60224 4 0 tcp 1040 ------- 1 4.0 2.0 29 44
+ 3.60224 0 1 tcp 1040 ------- 1 4.0 2.0 29 44
- 3.60224 0 1 tcp 1040 ------- 1 4.0 2.0 29 44
r 3.6064 4 0 tcp 1040 ------- 1 4.0 2.0 30 45
+ 3.6064 0 1 tcp 1040 ------- 1 4.0 2.0 30 45
- 3.6064 0 1 tcp 1040 ------- 1 4.0 2.0 30 45
r 3.64816 0 1 tcp 1040 ------- 1 4.0 2.0 15 30
+ 3.64816 1 2 tcp 1040 ------- 1 4.0 2.0 15 30
- 3.64816 1 2 tcp 1040 ------- 1 4.0 2.0 15 30
r 3.65232 0 1 tcp 1040 ------- 1 4.0 2.0 16 31
+ 3.65232 1 2 tcp 1040 ------- 1 4.0 2.0 16 31
- 3.65232 1 2 tcp 1040 ------- 1 4.0 2.0 16 31
r 3.65648 0 1 tcp 1040 ------- 1 4.0 2.0 17 32
+ 3.65648 1 2 tcp 1040 ------- 1 4.0 2.0 17 32
- 3.65648 1 2 tcp 1040 ------- 1 4.0 2.0 17 32
r 3.66064 0 1 tcp 1040 ------- 1 4.0 2.0 18 33
+ 3.66064 1 2 tcp 1040 ------- 1 4.0 2.0 18 33
- 3.66064 1 2 tcp 1040 ------- 1 4.0 2.0 18 33
r 3.6648 0 1 tcp 1040 ------- 1 4.0 2.0 19 34
+ 3.6648 1 2 tcp 1040 ------- 1 4.0 2.0 19 34
- 3.6648 1 2 tcp 1040 ------- 1 4.0 2.0 19 34
r 3.66896 0 1 tcp 1040 ------- 1 4.0 2.0 20 35
+ 3.66896 1 2 tcp 1040 ------- 1 4.0 2.0 20 35
- 3.66896 1 2 tcp 1040 ------- 1 4.0 2.0 20 35
r 3.67312 0 1 tcp 1040 ------- 1 4.0 2.0 21 36
+ 3.67312 1 2 tcp 1040 ------- 1 4.0 2.0 21 36
- 3.67312 1 2 tcp 1040 ------- 1 4.0 2.0 21 36
r 3.67728 0 1 tcp 1040 ------- 1 4.0 2.0 22 37
+ 3.67728 1 2 tcp 1040 ------- 1 4.0 2.0 22 37
- 3.67728 1 2 tcp 1040 ------- 1 4.0 2.0 22 37
r 3.68144 0 1 tcp 1040 ------- 1 4.0 2.0 23 38
+ 3.68144 1 2 tcp 1040 ------- 1 4.0 2.0 23 38
- 3.68144 1 2 tcp 1040 ------- 1 4.0 2.0 23 38
r 3.6856 0 1 tcp 1040 ------- 1 4.0 2.0 24 39
+ 3.6856 1 2 tcp 1040 ------- 1 4.0 2.0 24 39
- 3.6856 1 2 tcp 1040 ------- 1 4.0 2.0 24 39
r 3.68976 0 1 tcp 1040 ------- 1 4.0 2.0 25 40
+ 3.68976 1 2 tcp 1040 ------- 1 4.0 2.0 25 40
- 3.68976 1 2 tcp 1040 ------- 1 4.0 2.0 25 40
r 3.69392 0 1 tcp 1040 ------- 1 4.0 2.0 26 41
+ 3.69392 1 2 tcp 1040 ------- 1 4.0 2.0 26 41
- 3.69392 1 2 tcp 1040 ------- 1 4.0 2.0 26 41
r 3.69808 0 1 tcp 1040 ------- 1 4.0 2.0 27 42
+ 3.69808 1 2 tcp 1040 ------- 1 4.0 2.0 27 42
- 3.69808 1 2 tcp 1040 ------- 1 4.0 2.0 27 42
r 3.70224 0 1 tcp 1040 ------- 1 4.0 2.0 28 43
+ 3.70224 1 2 tcp 1040 ------- 1 4.0 2.0 28 43
- 3.70224 1 2 tcp 1040 ------- 1 4.0 2.0 28 43
r 3.7064 0 1 tcp 1040 ------- 1 4.0 2.0 29 44
+ 3.7064 1 2 tcp 1040 ------- 1 4.0 2.0 29 44
- 3.7064 1 2 tcp 1040 ------- 1 4.0 2.0 29 44
r 3.71056 0 1 tcp 1040 ------- 1 4.0 2.0 30 45
+ 3.71056 1 2 tcp 1040 ------- 1 4.0 2.0 30 45
- 3.71056 1 2 tcp 1040 ------- 1 4.0 2.0 30 45
r 3.75232 1 2 tcp 1040 ------- 1 4.0 2.0 15 30
+ 3.75232 2 1 ack 40 ------- 1 2.0 4.0 15 46
- 3.75232 2 1 ack 40 ------- 1 2.0 4.0 15 46
r 3.75648 1 2 tcp 1040 ------- 1 4.0 2.0 16 31
+ 3.75648 2 1 ack 40 ------- 1 2.0 4.0 16 47
- 3.75648 2 1 ack 40 ------- 1 2.0 4.0 16 47
r 3.76064 1 2 tcp 1040 ------- 1 4.0 2.0 17 32
+ 3.76064 2 1 ack 40 ------- 1 2.0 4.0 17 48
- 3.76064 2 1 ack 40 ------- 1 2.0 4.0 17 48
r 3.7648 1 2 tcp 1040 ------- 1 4.0 2.0 18 33
+ 3.7648 2 1 ack 40 ------- 1 2.0 4.0 18 49
- 3.7648 2 1 ack 40 ------- 1 2.0 4.0 18 49
r 3.76896 1 2 tcp 1040 ------- 1 4.0 2.0 19 34
+ 3.76896 2 1 ack 40 ------- 1 2.0 4.0 19 50
- 3.76896 2 1 ack 40 ------- 1 2.0 4.0 19 50
r 3.77312 1 2 tcp 1040 ------- 1 4.0 2.0 20 35
+ 3.77312 2 1 ack 40 ------- 1 2.0 4.0 20 51
- 3.77312 2 1 ack 40 ------- 1 2.0 4.0 20 51
r 3.77728 1 2 tcp 1040 ------- 1 4.0 2.0 21 36
+ 3.77728 2 1 ack 40 ------- 1 2.0 4.0 21 52
- 3.77728 2 1 ack 40 ------- 1 2.0 4.0 21 52
r 3.78144 1 2 tcp 1040 ------- 1 4.0 2.0 22 37
+ 3.78144 2 1 ack 40 ------- 1 2.0 4.0 22 53
- 3.78144 2 1 ack 40 ------- 1 2.0 4.0 22 53
r 3.7856 1 2 tcp 1040 ------- 1 4.0 2.0 23 38
+ 3.7856 2 1 ack 40 ------- 1 2.0 4.0 23 54
- 3.7856 2 1 ack 40 ------- 1 2.0 4.0 23 54
r 3.78976 1 2 tcp 1040 ------- 1 4.0 2.0 24 39
+ 3.78976 2 1 ack 40 ------- 1 2.0 4.0 24 55
- 3.78976 2 1 ack 40 ------- 1 2.0 4.0 24 55
r 3.79392 1 2 tcp 1040 ------- 1 4.0 2.0 25 40
+ 3.79392 2 1 ack 40 ------- 1 2.0 4.0 25 56
- 3.79392 2 1 ack 40 ------- 1 2.0 4.0 25 56
r 3.79808 1 2 tcp 1040 ------- 1 4.0 2.0 26 41
+ 3.79808 2 1 ack 40 ------- 1 2.0 4.0 26 57
- 3.79808 2 1 ack 40 ------- 1 2.0 4.0 26 57
r 3.80224 1 2 tcp 1040 ------- 1 4.0 2.0 27 42
+ 3.80224 2 1 ack 40 ------- 1 2.0 4.0 27 58
- 3.80224 2 1 ack 40 ------- 1 2.0 4.0 27 58
r 3.8064 1 2 tcp 1040 ------- 1 4.0 2.0 28 43
+ 3.8064 2 1 ack 40 ------- 1 2.0 4.0 28 59
- 3.8064 2 1 ack 40 ------- 1 2.0 4.0 28 59
r 3.81056 1 2 tcp 1040 ------- 1 4.0 2.0 29 44
+ 3.81056 2 1 ack 40 ------- 1 2.0 4.0 29 60
- 3.81056 2 1 ack 40 ------- 1 2.0 4.0 29 60
r 3.81472 1 2 tcp 1040 ------- 1 4.0 2.0 30 45
+ 3.81472 2 1 ack 40 ------- 1 2.0 4.0 30 61
- 3.81472 2 1 ack 40 ------- 1 2.0 4.0 30 61
r 3.85248 2 1 ack 40 ------- 1 2.0 4.0 15 46
+ 3.85248 1 0 ack 40 ------- 1 2.0 4.0 15 46
- 3.85248 1 0 ack 40 ------- 1 2.0 4.0 15 46
r 3.85664 2 1 ack 40 ------- 1 2.0 4.0 16 47
+ 3.85664 1 0 ack 40 ------- 1 2.0 4.0 16 47
- 3.85664 1 0 ack 40 ------- 1 2.0 4.0 16 47
r 3.8608 2 1 ack 40 ------- 1 2.0 4.0 17 48
+ 3.8608 1 0 ack 40 ------- 1 2.0 4.0 17 48
- 3.8608 1 0 ack 40 ------- 1 2.0 4.0 17 48
r 3.86496 2 1 ack 40 ------- 1 2.0 4.0 18 49
+ 3.86496 1 0 ack 40 ------- 1 2.0 4.0 18 49
- 3.86496 1 0 ack 40 ------- 1 2.0 4.0 18 49
r 3.86912 2 1 ack 40 ------- 1 2.0 4.0 19 50
+ 3.86912 1 0 ack 40 ------- 1 2.0 4.0 19 50
- 3.86912 1 0 ack 40 ------- 1 2.0 4.0 19 50
r 3.87328 2 1 ack 40 ------- 1 2.0 4.0 20 51
+ 3.87328 1 0 ack 40 ------- 1 2.0 4.0 20 51
- 3.87328 1 0 ack 40 ------- 1 2.0 4.0 20 51
r 3.87744 2 1 ack 40 ------- 1 2.0 4.0 21 52
+ 3.87744 1 0 ack 40 ------- 1 2.0 4.0 21 52
- 3.87744 1 0 ack 40 ------- 1 2.0 4.0 21 52
r 3.8816 2 1 ack 40 ------- 1 2.0 4.0 22 53
+ 3.8816 1 0 ack 40 ------- 1 2.0 4.0 22 53
- 3.8816 1 0 ack 40 ------- 1 2.0 4.0 22 53
r 3.88576 2 1 ack 40 ------- 1 2.0 4.0 23 54
+ 3.88576 1 0 ack 40 ------- 1 2.0 4.0 23 54
- 3.88576 1 0 ack 40 ------- 1 2.0 4.0 23 54
r 3.88992 2 1 ack 40 ------- 1 2.0 4.0 24 55
+ 3.88992 1 0 ack 40 ------- 1 2.0 4.0 24 55
- 3.88992 1 0 ack 40 ------- 1 2.0 4.0 24 55
r 3.89408 2 1 ack 40 ------- 1 2.0 4.0 25 56
+ 3.89408 1 0 ack 40 ------- 1 2.0 4.0 25 56
- 3.89408 1 0 ack 40 ------- 1 2.0 4.0 25 56
r 3.89824 2 1 ack 40 ------- 1 2.0 4.0 26 57
+ 3.89824 1 0 ack 40 ------- 1 2.0 4.0 26 57
- 3.89824 1 0 ack 40 ------- 1 2.0 4.0 26 57
r 3.9024 2 1 ack 40 ------- 1 2.0 4.0 27 58
+ 3.9024 1 0 ack 40 ------- 1 2.0 4.0 27 58
- 3.9024 1 0 ack 40 ------- 1 2.0 4.0 27 58
r 3.90656 2 1 ack 40 ------- 1 2.0 4.0 28 59
+ 3.90656 1 0 ack 40 ------- 1 2.0 4.0 28 59
- 3.90656 1 0 ack 40 ------- 1 2.0 4.0 28 59
r 3.91072 2 1 ack 40 ------- 1 2.0 4.0 29 60
+ 3.91072 1 0 ack 40 ------- 1 2.0 4.0 29 60
- 3.91072 1 0 ack 40 ------- 1 2.0 4.0 29 60
r 3.91488 2 1 ack 40 ------- 1 2.0 4.0 30 61
+ 3.91488 1 0 ack 40 ------- 1 2.0 4.0 30 61
- 3.91488 1 0 ack 40 ------- 1 2.0 4.0 30 61
r 3.95264 1 0 ack 40 ------- 1 2.0 4.0 15 46
+ 3.95264 0 4 ack 40 ------- 1 2.0 4.0 15 46
- 3.95264 0 4 ack 40 ------- 1 2.0 4.0 15 46
r 3.9568 1 0 ack 40 ------- 1 2.0 4.0 16 47
+ 3.9568 0 4 ack 40 ------- 1 2.0 4.0 16 47
- 3.9568 0 4 ack 40 ------- 1 2.0 4.0 16 47
r 3.96096 1 0 ack 40 ------- 1 2.0 4.0 17 48
+ 3.96096 0 4 ack 40 ------- 1 2.0 4.0 17 48
- 3.96096 0 4 ack 40 ------- 1 2.0 4.0 17 48
r 3.96512 1 0 ack 40 ------- 1 2.0 4.0 18 49
+ 3.96512 0 4 ack 40 ------- 1 2.0 4.0 18 49
- 3.96512 0 4 ack 40 ------- 1 2.0 4.0 18 49
r 3.96928 1 0 ack 40 ------- 1 2.0 4.0 19 50
+ 3.96928 0 4 ack 40 ------- 1 2.0 4.0 19 50
- 3.96928 0 4 ack 40 ------- 1 2.0 4.0 19 50
r 3.97344 1 0 ack 40 ------- 1 2.0 4.0 20 51
+ 3.97344 0 4 ack 40 ------- 1 2.0 4.0 20 51
- 3.97344 0 4 ack 40 ------- 1 2.0 4.0 20 51
r 3.9776 1 0 ack 40 ------- 1 2.0 4.0 21 52
+ 3.9776 0 4 ack 40 ------- 1 2.0 4.0 21 52
- 3.9776 0 4 ack 40 ------- 1 2.0 4.0 21 52
r 3.98176 1 0 ack 40 ------- 1 2.0 4.0 22 53
+ 3.98176 0 4 ack 40 ------- 1 2.0 4.0 22 53
- 3.98176 0 4 ack 40 ------- 1 2.0 4.0 22 53
r 3.98592 1 0 ack 40 ------- 1 2.0 4.0 23 54
+ 3.98592 0 4 ack 40 ------- 1 2.0 4.0 23 54
- 3.98592 0 4 ack 40 ------- 1 2.0 4.0 23 54
r 3.99008 1 0 ack 40 ------- 1 2.0 4.0 24 55
+ 3.99008 0 4 ack 40 ------- 1 2.0 4.0 24 55
- 3.99008 0 4 ack 40 ------- 1 2.0 4.0 24 55
r 3.99424 1 0 ack 40 ------- 1 2.0 4.0 25 56
+ 3.99424 0 4 ack 40 ------- 1 2.0 4.0 25 56
- 3.99424 0 4 ack 40 ------- 1 2.0 4.0 25 56
r 3.9984 1 0 ack 40 ------- 1 2.0 4.0 26 57
+ 3.9984 0 4 ack 40 ------- 1 2.0 4.0 26 57
- 3.9984 0 4 ack 40 ------- 1 2.0 4.0 26 57
r 4.00256 1 0 ack 40 ------- 1 2.0 4.0 27 58
+ 4.00256 0 4 ack 40 ------- 1 2.0 4.0 27 58
- 4.00256 0 4 ack 40 ------- 1 2.0 4.0 27 58
r 4.00672 1 0 ack 40 ------- 1 2.0 4.0 28 59
+ 4.00672 0 4 ack 40 ------- 1 2.0 4.0 28 59
- 4.00672 0 4 ack 40 ------- 1 2.0 4.0 28 59
r 4.01088 1 0 ack 40 ------- 1 2.0 4.0 29 60
+ 4.01088 0 4 ack 40 ------- 1 2.0 4.0 29 60
- 4.01088 0 4 ack 40 ------- 1 2.0 4.0 29 60
r 4.01504 1 0 ack 40 ------- 1 2.0 4.0 30 61
+ 4.01504 0 4 ack 40 ------- 1 2.0 4.0 30 61
- 4.01504 0 4 ack 40 ------- 1 2.0 4.0 30 61
r 4.0528 0 4 ack 40 ------- 1 2.0 4.0 15 46
+ 4.0528 4 0 tcp 1040 ------- 1 4.0 2.0 31 62
- 4.0528 4 0 tcp 1040 ------- 1 4.0 2.0 31 62
+ 4.0528 4 0 tcp 1040 ------- 1 4.0 2.0 32 63
r 4.05696 0 4 ack 40 ------- 1 2.0 4.0 16 47
+ 4.05696 4 0 tcp 1040 ------- 1 4.0 2.0 33 64
+ 4.05696 4 0 tcp 1040 ------- 1 4.0 2.0 34 65
- 4.05696 4 0 tcp 1040 ------- 1 4.0 2.0 32 63
- 4.06112 4 0 tcp 1040 ------- 1 4.0 2.0 33 64
r 4.06112 0 4 ack 40 ------- 1 2.0 4.0 17 48
+ 4.06112 4 0 tcp 1040 ------- 1 4.0 2.0 35 66
+ 4.06112 4 0 tcp 1040 ------- 1 4.0 2.0 36 67
- 4.06528 4 0 tcp 1040 ------- 1 4.0 2.0 34 65
r 4.06528 0 4 ack 40 ------- 1 2.0 4.0 18 49
+ 4.06528 4 0 tcp 1040 ------- 1 4.0 2.0 37 68
+ 4.06528 4 0 tcp 1040 ------- 1 4.0 2.0 38 69
- 4.06944 4 0 tcp 1040 ------- 1 4.0 2.0 35 66
r 4.06944 0 4 ack 40 ------- 1 2.0 4.0 19 50
+ 4.06944 4 0 tcp 1040 ------- 1 4.0 2.0 39 70
- 4.0736 4 0 tcp 1040 ------- 1 4.0 2.0 36 67
r 4.0736 0 4 ack 40 ------- 1 2.0 4.0 20 51
+ 4.0736 4 0 tcp 1040 ------- 1 4.0 2.0 40 71
- 4.07776 4 0 tcp 1040 ------- 1 4.0 2.0 37 68
r 4.07776 0 4 ack 40 ------- 1 2.0 4.0 21 52
+ 4.07776 4 0 tcp 1040 ------- 1 4.0 2.0 41 72
- 4.08192 4 0 tcp 1040 ------- 1 4.0 2.0 38 69
r 4.08192 0 4 ack 40 ------- 1 2.0 4.0 22 53
+ 4.08192 4 0 tcp 1040 ------- 1 4.0 2.0 42 73
- 4.08608 4 0 tcp 1040 ------- 1 4.0 2.0 39 70
r 4.08608 0 4 ack 40 ------- 1 2.0 4.0 23 54
+ 4.08608 4 0 tcp 1040 ------- 1 4.0 2.0 43 74
- 4.09024 4 0 tcp 1040 ------- 1 4.0 2.0 40 71
r 4.09024 0 4 ack 40 ------- 1 2.0 4.0 24 55
+ 4.09024 4 0 tcp 1040 ------- 1 4.0 2.0 44 75
- 4.0944 4 0 tcp 1040 ------- 1 4.0 2.0 41 72
r 4.0944 0 4 ack 40 ------- 1 2.0 4.0 25 56
+ 4.0944 4 0 tcp 1040 ------- 1 4.0 2.0 45 76
- 4.09856 4 0 tcp 1040 ------- 1 4.0 2.0 42 73
r 4.09856 0 4 ack 40 ------- 1 2.0 4.0 26 57
+ 4.09856 4 0 tcp 1040 ------- 1 4.0 2.0 46 77
- 4.10272 4 0 tcp 1040 ------- 1 4.0 2.0 43 74
r 4.10272 0 4 ack 40 ------- 1 2.0 4.0 27 58
+ 4.10272 4 0 tcp 1040 ------- 1 4.0 2.0 47 78
- 4.10688 4 0 tcp 1040 ------- 1 4.0 2.0 44 75
r 4.10688 0 4 ack 40 ------- 1 2.0 4.0 28 59
+ 4.10688 4 0 tcp 1040 ------- 1 4.0 2.0 48 79
- 4.11104 4 0 tcp 1040 ------- 1 4.0 2.0 45 76
r 4.11104 0 4 ack 40 ------- 1 2.0 4.0 29 60
+ 4.11104 4 0 tcp 1040 ------- 1 4.0 2.0 49 80
- 4.1152 4 0 tcp 1040 ------- 1 4.0 2.0 46 77
r 4.1152 0 4 ack 40 ------- 1 2.0 4.0 30 61
+ 4.1152 4 0 tcp 1040 ------- 1 4.0 2.0 50 81
- 4.11936 4 0 tcp 1040 ------- 1 4.0 2.0 47 78
- 4.12352 4 0 tcp 1040 ------- 1 4.0 2.0 48 79
- 4.12768 4 0 tcp 1040 ------- 1 4.0 2.0 49 80
- 4.13184 4 0 tcp 1040 ------- 1 4.0 2.0 50 81
r 4.15696 4 0 tcp 1040 ------- 1 4.0 2.0 31 62
+ 4.15696 0 1 tcp 1040 ------- 1 4.0 2.0 31 62
- 4.15696 0 1 tcp 1040 ------- 1 4.0 2.0 31 62
r 4.16112 4 0 tcp 1040 ------- 1 4.0 2.0 32 63
+ 4.16112 0 1 tcp 1040 ------- 1 4.0 2.0 32 63
- 4.16112 0 1 tcp 1040 ------- 1 4.0 2.0 32 63
r 4.16528 4 0 tcp 1040 ------- 1 4.0 2.0 33 64
+ 4.16528 0 1 tcp 1040 ------- 1 4.0 2.0 33 64
- 4.16528 0 1 tcp 1040 ------- 1 4.0 2.0 33 64
r 4.16944 4 0 tcp 1040 ------- 1 4.0 2.0 34 65
+ 4.16944 0 1 tcp 1040 ------- 1 4.0 2.0 34 65
- 4.16944 0 1 tcp 1040 ------- 1 4.0 2.0 34 65
r 4.1736 4 0 tcp 1040 ------- 1 4.0 2.0 35 66
+ 4.1736 0 1 tcp 1040 ------- 1 4.0 2.0 35 66
- 4.1736 0 1 tcp 1040 ------- 1 4.0 2.0 35 66
r 4.17776 4 0 tcp 1040 ------- 1 4.0 2.0 36 67
+ 4.17776 0 1 tcp 1040 ------- 1 4.0 2.0 36 67
- 4.17776 0 1 tcp 1040 ------- 1 4.0 2.0 36 67
r 4.18192 4 0 tcp 1040 ------- 1 4.0 2.0 37 68
+ 4.18192 0 1 tcp 1040 ------- 1 4.0 2.0 37 68
- 4.18192 0 1 tcp 1040 ------- 1 4.0 2.0 37 68
r 4.18608 4 0 tcp 1040 ------- 1 4.0 2.0 38 69
+ 4.18608 0 1 tcp 1040 ------- 1 4.0 2.0 38 69
- 4.18608 0 1 tcp 1040 ------- 1 4.0 2.0 38 69
r 4.19024 4 0 tcp 1040 ------- 1 4.0 2.0 39 70
+ 4.19024 0 1 tcp 1040 ------- 1 4.0 2.0 39 70
- 4.19024 0 1 tcp 1040 ------- 1 4.0 2.0 39 70
r 4.1944 4 0 tcp 1040 ------- 1 4.0 2.0 40 71
+ 4.1944 0 1 tcp 1040 ------- 1 4.0 2.0 40 71
- 4.1944 0 1 tcp 1040 ------- 1 4.0 2.0 40 71
r 4.19856 4 0 tcp 1040 ------- 1 4.0 2.0 41 72
+ 4.19856 0 1 tcp 1040 ------- 1 4.0 2.0 41 72
- 4.19856 0 1 tcp 1040 ------- 1 4.0 2.0 41 72
r 4.20272 4 0 tcp 1040 ------- 1 4.0 2.0 42 73
+ 4.20272 0 1 tcp 1040 ------- 1 4.0 2.0 42 73
- 4.20272 0 1 tcp 1040 ------- 1 4.0 2.0 42 73
r 4.20688 4 0 tcp 1040 ------- 1 4.0 2.0 43 74
+ 4.20688 0 1 tcp 1040 ------- 1 4.0 2.0 43 74
- 4.20688 0 1 tcp 1040 ------- 1 4.0 2.0 43 74
r 4.21104 4 0 tcp 1040 ------- 1 4.0 2.0 44 75
+ 4.21104 0 1 tcp 1040 ------- 1 4.0 2.0 44 75
- 4.21104 0 1 tcp 1040 ------- 1 4.0 2.0 44 75
r 4.2152 4 0 tcp 1040 ------- 1 4.0 2.0 45 76
+ 4.2152 0 1 tcp 1040 ------- 1 4.0 2.0 45 76
- 4.2152 0 1 tcp 1040 ------- 1 4.0 2.0 45 76
r 4.21936 4 0 tcp 1040 ------- 1 4.0 2.0 46 77
+ 4.21936 0 1 tcp 1040 ------- 1 4.0 2.0 46 77
- 4.21936 0 1 tcp 1040 ------- 1 4.0 2.0 46 77
r 4.22352 4 0 tcp 1040 ------- 1 4.0 2.0 47 78
+ 4.22352 0 1 tcp 1040 ------- 1 4.0 2.0 47 78
- 4.22352 0 1 tcp 1040 ------- 1 4.0 2.0 47 78
r 4.22768 4 0 tcp 1040 ------- 1 4.0 2.0 48 79
+ 4.22768 0 1 tcp 1040 ------- 1 4.0 2.0 48 79
- 4.22768 0 1 tcp 1040 ------- 1 4.0 2.0 48 79
r 4.23184 4 0 tcp 1040 ------- 1 4.0 2.0 49 80
+ 4.23184 0 1 tcp 1040 ------- 1 4.0 2.0 49 80
- 4.23184 0 1 tcp 1040 ------- 1 4.0 2.0 49 80
r 4.236 4 0 tcp 1040 ------- 1 4.0 2.0 50 81
+ 4.236 0 1 tcp 1040 ------- 1 4.0 2.0 50 81
- 4.236 0 1 tcp 1040 ------- 1 4.0 2.0 50 81
r 4.26112 0 1 tcp 1040 ------- 1 4.0 2.0 31 62