+ 0.1 3 1 cbr 800 ------- 2 3.0 2.1 0 0
- 0.1 3 1 cbr 800 ------- 2 3.0 2.1 0 0
+ 0.105 3 1 cbr 800 ------- 2 3.0 2.1 1 1
- 0.105 3 1 cbr 800 ------- 2 3.0 2.1 1 1
+ 0.11 3 1 cbr 800 ------- 2 3.0 2.1 2 2
- 0.11 3 1 cbr 800 ------- 2 3.0 2.1 2 2
+ 0.115 3 1 cbr 800 ------- 2 3.0 2.1 3 3
- 0.115 3 1 cbr 800 ------- 2 3.0 2.1 3 3
+ 0.12 3 1 cbr 800 ------- 2 3.0 2.1 4 4
- 0.12 3 1 cbr 800 ------- 2 3.0 2.1 4 4
+ 0.125 3 1 cbr 800 ------- 2 3.0 2.1 5 5
- 0.125 3 1 cbr 800 ------- 2 3.0 2.1 5 5
+ 0.13 3 1 cbr 800 ------- 2 3.0 2.1 6 6
- 0.13 3 1 cbr 800 ------- 2 3.0 2.1 6 6
+ 0.135 3 1 cbr 800 ------- 2 3.0 2.1 7 7
- 0.135 3 1 cbr 800 ------- 2 3.0 2.1 7 7
+ 0.14 3 1 cbr 800 ------- 2 3.0 2.1 8 8
- 0.14 3 1 cbr 800 ------- 2 3.0 2.1 8 8
+ 0.145 3 1 cbr 800 ------- 2 3.0 2.1 9 9
- 0.145 3 1 cbr 800 ------- 2 3.0 2.1 9 9
+ 0.15 3 1 cbr 800 ------- 2 3.0 2.1 10 10
- 0.15 3 1 cbr 800 ------- 2 3.0 2.1 10 10
+ 0.155 3 1 cbr 800 ------- 2 3.0 2.1 11 11
- 0.155 3 1 cbr 800 ------- 2 3.0 2.1 11 11
+ 0.16 3 1 cbr 800 ------- 2 3.0 2.1 12 12
- 0.16 3 1 cbr 800 ------- 2 3.0 2.1 12 12
+ 0.165 3 1 cbr 800 ------- 2 3.0 2.1 13 13
- 0.165 3 1 cbr 800 ------- 2 3.0 2.1 13 13
+ 0.17 3 1 cbr 800 ------- 2 3.0 2.1 14 14
- 0.17 3 1 cbr 800 ------- 2 3.0 2.1 14 14
+ 0.175 3 1 cbr 800 ------- 2 3.0 2.1 15 15
- 0.175 3 1 cbr 800 ------- 2 3.0 2.1 15 15
+ 0.18 3 1 cbr 800 ------- 2 3.0 2.1 16 16
- 0.18 3 1 cbr 800 ------- 2 3.0 2.1 16 16
+ 0.185 3 1 cbr 800 ------- 2 3.0 2.1 17 17
- 0.185 3 1 cbr 800 ------- 2 3.0 2.1 17 17
+ 0.19 3 1 cbr 800 ------- 2 3.0 2.1 18 18
- 0.19 3 1 cbr 800 ------- 2 3.0 2.1 18 18
+ 0.195 3 1 cbr 800 ------- 2 3.0 2.1 19 19
- 0.195 3 1 cbr 800 ------- 2 3.0 2.1 19 19
+ 0.2 3 1 cbr 800 ------- 2 3.0 2.1 20 20
- 0.2 3 1 cbr 800 ------- 2 3.0 2.1 20 20
r 0.2032 3 1 cbr 800 ------- 2 3.0 2.1 0 0
+ 0.2032 1 2 cbr 800 ------- 2 3.0 2.1 0 0
- 0.2032 1 2 cbr 800 ------- 2 3.0 2.1 0 0
+ 0.205 3 1 cbr 800 ------- 2 3.0 2.1 21 21
- 0.205 3 1 cbr 800 ------- 2 3.0 2.1 21 21
r 0.2082 3 1 cbr 800 ------- 2 3.0 2.1 1 1
+ 0.2082 1 2 cbr 800 ------- 2 3.0 2.1 1 1
- 0.2082 1 2 cbr 800 ------- 2 3.0 2.1 1 1
+ 0.21 3 1 cbr 800 ------- 2 3.0 2.1 22 22
- 0.21 3 1 cbr 800 ------- 2 3.0 2.1 22 22
r 0.2132 3 1 cbr 800 ------- 2 3.0 2.1 2 2
+ 0.2132 1 2 cbr 800 ------- 2 3.0 2.1 2 2
- 0.2132 1 2 cbr 800 ------- 2 3.0 2.1 2 2
+ 0.215 3 1 cbr 800 ------- 2 3.0 2.1 23 23
- 0.215 3 1 cbr 800 ------- 2 3.0 2.1 23 23
r 0.2182 3 1 cbr 800 ------- 2 3.0 2.1 3 3
+ 0.2182 1 2 cbr 800 ------- 2 3.0 2.1 3 3
- 0.2182 1 2 cbr 800 ------- 2 3.0 2.1 3 3
+ 0.22 3 1 cbr 800 ------- 2 3.0 2.1 24 24
- 0.22 3 1 cbr 800 ------- 2 3.0 2.1 24 24
r 0.2232 3 1 cbr 800 ------- 2 3.0 2.1 4 4
+ 0.2232 1 2 cbr 800 ------- 2 3.0 2.1 4 4
- 0.2232 1 2 cbr 800 ------- 2 3.0 2.1 4 4
+ 0.225 3 1 cbr 800 ------- 2 3.0 2.1 25 25
- 0.225 3 1 cbr 800 ------- 2 3.0 2.1 25 25
r 0.2282 3 1 cbr 800 ------- 2 3.0 2.1 5 5
+ 0.2282 1 2 cbr 800 ------- 2 3.0 2.1 5 5
- 0.2282 1 2 cbr 800 ------- 2 3.0 2.1 5 5
+ 0.23 3 1 cbr 800 ------- 2 3.0 2.1 26 26
- 0.23 3 1 cbr 800 ------- 2 3.0 2.1 26 26
r 0.2332 3 1 cbr 800 ------- 2 3.0 2.1 6 6
+ 0.2332 1 2 cbr 800 ------- 2 3.0 2.1 6 6
- 0.2332 1 2 cbr 800 ------- 2 3.0 2.1 6 6
+ 0.235 3 1 cbr 800 ------- 2 3.0 2.1 27 27
- 0.235 3 1 cbr 800 ------- 2 3.0 2.1 27 27
r 0.2382 3 1 cbr 800 ------- 2 3.0 2.1 7 7
+ 0.2382 1 2 cbr 800 ------- 2 3.0 2.1 7 7
- 0.2382 1 2 cbr 800 ------- 2 3.0 2.1 7 7
+ 0.24 3 1 cbr 800 ------- 2 3.0 2.1 28 28
- 0.24 3 1 cbr 800 ------- 2 3.0 2.1 28 28
r 0.2432 3 1 cbr 800 ------- 2 3.0 2.1 8 8
+ 0.2432 1 2 cbr 800 ------- 2 3.0 2.1 8 8
- 0.2432 1 2 cbr 800 ------- 2 3.0 2.1 8 8
+ 0.245 3 1 cbr 800 ------- 2 3.0 2.1 29 29
- 0.245 3 1 cbr 800 ------- 2 3.0 2.1 29 29
r 0.2482 3 1 cbr 800 ------- 2 3.0 2.1 9 9
+ 0.2482 1 2 cbr 800 ------- 2 3.0 2.1 9 9
- 0.2482 1 2 cbr 800 ------- 2 3.0 2.1 9 9
+ 0.25 3 1 cbr 800 ------- 2 3.0 2.1 30 30
- 0.25 3 1 cbr 800 ------- 2 3.0 2.1 30 30
r 0.2532 3 1 cbr 800 ------- 2 3.0 2.1 10 10
+ 0.2532 1 2 cbr 800 ------- 2 3.0 2.1 10 10
- 0.2532 1 2 cbr 800 ------- 2 3.0 2.1 10 10
+ 0.255 3 1 cbr 800 ------- 2 3.0 2.1 31 31
- 0.255 3 1 cbr 800 ------- 2 3.0 2.1 31 31
r 0.2582 3 1 cbr 800 ------- 2 3.0 2.1 11 11
+ 0.2582 1 2 cbr 800 ------- 2 3.0 2.1 11 11
- 0.2582 1 2 cbr 800 ------- 2 3.0 2.1 11 11
+ 0.26 3 1 cbr 800 ------- 2 3.0 2.1 32 32
- 0.26 3 1 cbr 800 ------- 2 3.0 2.1 32 32
r 0.2632 3 1 cbr 800 ------- 2 3.0 2.1 12 12
+ 0.2632 1 2 cbr 800 ------- 2 3.0 2.1 12 12
- 0.2632 1 2 cbr 800 ------- 2 3.0 2.1 12 12
+ 0.265 3 1 cbr 800 ------- 2 3.0 2.1 33 33
- 0.265 3 1 cbr 800 ------- 2 3.0 2.1 33 33
r 0.2682 3 1 cbr 800 ------- 2 3.0 2.1 13 13
+ 0.2682 1 2 cbr 800 ------- 2 3.0 2.1 13 13
- 0.2682 1 2 cbr 800 ------- 2 3.0 2.1 13 13
+ 0.27 3 1 cbr 800 ------- 2 3.0 2.1 34 34
- 0.27 3 1 cbr 800 ------- 2 3.0 2.1 34 34
r 0.2732 3 1 cbr 800 ------- 2 3.0 2.1 14 14
+ 0.2732 1 2 cbr 800 ------- 2 3.0 2.1 14 14
- 0.2732 1 2 cbr 800 ------- 2 3.0 2.1 14 14
+ 0.275 3 1 cbr 800 ------- 2 3.0 2.1 35 35
- 0.275 3 1 cbr 800 ------- 2 3.0 2.1 35 35
r 0.2782 3 1 cbr 800 ------- 2 3.0 2.1 15 15
+ 0.2782 1 2 cbr 800 ------- 2 3.0 2.1 15 15
- 0.2782 1 2 cbr 800 ------- 2 3.0 2.1 15 15
+ 0.28 3 1 cbr 800 ------- 2 3.0 2.1 36 36
- 0.28 3 1 cbr 800 ------- 2 3.0 2.1 36 36
r 0.2832 3 1 cbr 800 ------- 2 3.0 2.1 16 16
+ 0.2832 1 2 cbr 800 ------- 2 3.0 2.1 16 16
- 0.2832 1 2 cbr 800 ------- 2 3.0 2.1 16 16
+ 0.285 3 1 cbr 800 ------- 2 3.0 2.1 37 37
- 0.285 3 1 cbr 800 ------- 2 3.0 2.1 37 37
r 0.2882 3 1 cbr 800 ------- 2 3.0 2.1 17 17
+ 0.2882 1 2 cbr 800 ------- 2 3.0 2.1 17 17
- 0.2882 1 2 cbr 800 ------- 2 3.0 2.1 17 17
+ 0.29 3 1 cbr 800 ------- 2 3.0 2.1 38 38
- 0.29 3 1 cbr 800 ------- 2 3.0 2.1 38 38
r 0.2932 3 1 cbr 800 ------- 2 3.0 2.1 18 18
+ 0.2932 1 2 cbr 800 ------- 2 3.0 2.1 18 18
- 0.2932 1 2 cbr 800 ------- 2 3.0 2.1 18 18
+ 0.295 3 1 cbr 800 ------- 2 3.0 2.1 39 39
- 0.295 3 1 cbr 800 ------- 2 3.0 2.1 39 39
r 0.2982 3 1 cbr 800 ------- 2 3.0 2.1 19 19
+ 0.2982 1 2 cbr 800 ------- 2 3.0 2.1 19 19
- 0.2982 1 2 cbr 800 ------- 2 3.0 2.1 19 19
+ 0.3 3 1 cbr 800 ------- 2 3.0 2.1 40 40
- 0.3 3 1 cbr 800 ------- 2 3.0 2.1 40 40
r 0.3032 3 1 cbr 800 ------- 2 3.0 2.1 20 20
+ 0.3032 1 2 cbr 800 ------- 2 3.0 2.1 20 20
- 0.3032 1 2 cbr 800 ------- 2 3.0 2.1 20 20
+ 0.305 3 1 cbr 800 ------- 2 3.0 2.1 41 41
- 0.305 3 1 cbr 800 ------- 2 3.0 2.1 41 41
r 0.307467 1 2 cbr 800 ------- 2 3.0 2.1 0 0
r 0.3082 3 1 cbr 800 ------- 2 3.0 2.1 21 21
+ 0.3082 1 2 cbr 800 ------- 2 3.0 2.1 21 21
- 0.3082 1 2 cbr 800 ------- 2 3.0 2.1 21 21
+ 0.31 3 1 cbr 800 ------- 2 3.0 2.1 42 42
- 0.31 3 1 cbr 800 ------- 2 3.0 2.1 42 42
r 0.312467 1 2 cbr 800 ------- 2 3.0 2.1 1 1
r 0.3132 3 1 cbr 800 ------- 2 3.0 2.1 22 22
+ 0.3132 1 2 cbr 800 ------- 2 3.0 2.1 22 22
- 0.3132 1 2 cbr 800 ------- 2 3.0 2.1 22 22
+ 0.315 3 1 cbr 800 ------- 2 3.0 2.1 43 43
- 0.315 3 1 cbr 800 ------- 2 3.0 2.1 43 43
r 0.317467 1 2 cbr 800 ------- 2 3.0 2.1 2 2
r 0.3182 3 1 cbr 800 ------- 2 3.0 2.1 23 23
+ 0.3182 1 2 cbr 800 ------- 2 3.0 2.1 23 23
- 0.3182 1 2 cbr 800 ------- 2 3.0 2.1 23 23
+ 0.32 3 1 cbr 800 ------- 2 3.0 2.1 44 44
- 0.32 3 1 cbr 800 ------- 2 3.0 2.1 44 44
r 0.322467 1 2 cbr 800 ------- 2 3.0 2.1 3 3
r 0.3232 3 1 cbr 800 ------- 2 3.0 2.1 24 24
+ 0.3232 1 2 cbr 800 ------- 2 3.0 2.1 24 24
- 0.3232 1 2 cbr 800 ------- 2 3.0 2.1 24 24
+ 0.325 3 1 cbr 800 ------- 2 3.0 2.1 45 45
- 0.325 3 1 cbr 800 ------- 2 3.0 2.1 45 45
r 0.327467 1 2 cbr 800 ------- 2 3.0 2.1 4 4
r 0.3282 3 1 cbr 800 ------- 2 3.0 2.1 25 25
+ 0.3282 1 2 cbr 800 ------- 2 3.0 2.1 25 25
- 0.3282 1 2 cbr 800 ------- 2 3.0 2.1 25 25
+ 0.33 3 1 cbr 800 ------- 2 3.0 2.1 46 46
- 0.33 3 1 cbr 800 ------- 2 3.0 2.1 46 46
r 0.332467 1 2 cbr 800 ------- 2 3.0 2.1 5 5
r 0.3332 3 1 cbr 800 ------- 2 3.0 2.1 26 26
+ 0.3332 1 2 cbr 800 ------- 2 3.0 2.1 26 26
- 0.3332 1 2 cbr 800 ------- 2 3.0 2.1 26 26
+ 0.335 3 1 cbr 800 ------- 2 3.0 2.1 47 47
- 0.335 3 1 cbr 800 ------- 2 3.0 2.1 47 47
r 0.337467 1 2 cbr 800 ------- 2 3.0 2.1 6 6
r 0.3382 3 1 cbr 800 ------- 2 3.0 2.1 27 27
+ 0.3382 1 2 cbr 800 ------- 2 3.0 2.1 27 27
- 0.3382 1 2 cbr 800 ------- 2 3.0 2.1 27 27
+ 0.34 3 1 cbr 800 ------- 2 3.0 2.1 48 48
- 0.34 3 1 cbr 800 ------- 2 3.0 2.1 48 48
r 0.342467 1 2 cbr 800 ------- 2 3.0 2.1 7 7
r 0.3432 3 1 cbr 800 ------- 2 3.0 2.1 28 28
+ 0.3432 1 2 cbr 800 ------- 2 3.0 2.1 28 28
- 0.3432 1 2 cbr 800 ------- 2 3.0 2.1 28 28
+ 0.345 3 1 cbr 800 ------- 2 3.0 2.1 49 49
- 0.345 3 1 cbr 800 ------- 2 3.0 2.1 49 49
r 0.347467 1 2 cbr 800 ------- 2 3.0 2.1 8 8
r 0.3482 3 1 cbr 800 ------- 2 3.0 2.1 29 29
+ 0.3482 1 2 cbr 800 ------- 2 3.0 2.1 29 29
- 0.3482 1 2 cbr 800 ------- 2 3.0 2.1 29 29
+ 0.35 3 1 cbr 800 ------- 2 3.0 2.1 50 50
- 0.35 3 1 cbr 800 ------- 2 3.0 2.1 50 50
r 0.352467 1 2 cbr 800 ------- 2 3.0 2.1 9 9
r 0.3532 3 1 cbr 800 ------- 2 3.0 2.1 30 30
+ 0.3532 1 2 cbr 800 ------- 2 3.0 2.1 30 30
- 0.3532 1 2 cbr 800 ------- 2 3.0 2.1 30 30
+ 0.355 3 1 cbr 800 ------- 2 3.0 2.1 51 51
- 0.355 3 1 cbr 800 ------- 2 3.0 2.1 51 51
r 0.357467 1 2 cbr 800 ------- 2 3.0 2.1 10 10
r 0.3582 3 1 cbr 800 ------- 2 3.0 2.1 31 31
+ 0.3582 1 2 cbr 800 ------- 2 3.0 2.1 31 31
- 0.3582 1 2 cbr 800 ------- 2 3.0 2.1 31 31
+ 0.36 3 1 cbr 800 ------- 2 3.0 2.1 52 52
- 0.36 3 1 cbr 800 ------- 2 3.0 2.1 52 52
r 0.362467 1 2 cbr 800 ------- 2 3.0 2.1 11 11
r 0.3632 3 1 cbr 800 ------- 2 3.0 2.1 32 32
+ 0.3632 1 2 cbr 800 ------- 2 3.0 2.1 32 32
- 0.3632 1 2 cbr 800 ------- 2 3.0 2.1 32 32
+ 0.365 3 1 cbr 800 ------- 2 3.0 2.1 53 53
- 0.365 3 1 cbr 800 ------- 2 3.0 2.1 53 53
r 0.367467 1 2 cbr 800 ------- 2 3.0 2.1 12 12
r 0.3682 3 1 cbr 800 ------- 2 3.0 2.1 33 33
+ 0.3682 1 2 cbr 800 ------- 2 3.0 2.1 33 33
- 0.3682 1 2 cbr 800 ------- 2 3.0 2.1 33 33
+ 0.37 3 1 cbr 800 ------- 2 3.0 2.1 54 54
- 0.37 3 1 cbr 800 ------- 2 3.0 2.1 54 54
r 0.372467 1 2 cbr 800 ------- 2 3.0 2.1 13 13
r 0.3732 3 1 cbr 800 ------- 2 3.0 2.1 34 34
+ 0.3732 1 2 cbr 800 ------- 2 3.0 2.1 34 34
- 0.3732 1 2 cbr 800 ------- 2 3.0 2.1 34 34
+ 0.375 3 1 cbr 800 ------- 2 3.0 2.1 55 55
- 0.375 3 1 cbr 800 ------- 2 3.0 2.1 55 55
r 0.377467 1 2 cbr 800 ------- 2 3.0 2.1 14 14
r 0.3782 3 1 cbr 800 ------- 2 3.0 2.1 35 35
+ 0.3782 1 2 cbr 800 ------- 2 3.0 2.1 35 35
- 0.3782 1 2 cbr 800 ------- 2 3.0 2.1 35 35
+ 0.38 3 1 cbr 800 ------- 2 3.0 2.1 56 56
- 0.38 3 1 cbr 800 ------- 2 3.0 2.1 56 56
r 0.382467 1 2 cbr 800 ------- 2 3.0 2.1 15 15
r 0.3832 3 1 cbr 800 ------- 2 3.0 2.1 36 36
+ 0.3832 1 2 cbr 800 ------- 2 3.0 2.1 36 36
- 0.3832 1 2 cbr 800 ------- 2 3.0 2.1 36 36
+ 0.385 3 1 cbr 800 ------- 2 3.0 2.1 57 57
- 0.385 3 1 cbr 800 ------- 2 3.0 2.1 57 57
r 0.387467 1 2 cbr 800 ------- 2 3.0 2.1 16 16
r 0.3882 3 1 cbr 800 ------- 2 3.0 2.1 37 37
+ 0.3882 1 2 cbr 800 ------- 2 3.0 2.1 37 37
- 0.3882 1 2 cbr 800 ------- 2 3.0 2.1 37 37
+ 0.39 3 1 cbr 800 ------- 2 3.0 2.1 58 58
- 0.39 3 1 cbr 800 ------- 2 3.0 2.1 58 58
r 0.392467 1 2 cbr 800 ------- 2 3.0 2.1 17 17
r 0.3932 3 1 cbr 800 ------- 2 3.0 2.1 38 38
+ 0.3932 1 2 cbr 800 ------- 2 3.0 2.1 38 38
- 0.3932 1 2 cbr 800 ------- 2 3.0 2.1 38 38
+ 0.395 3 1 cbr 800 ------- 2 3.0 2.1 59 59
- 0.395 3 1 cbr 800 ------- 2 3.0 2.1 59 59
r 0.397467 1 2 cbr 800 ------- 2 3.0 2.1 18 18
r 0.3982 3 1 cbr 800 ------- 2 3.0 2.1 39 39
+ 0.3982 1 2 cbr 800 ------- 2 3.0 2.1 39 39
- 0.3982 1 2 cbr 800 ------- 2 3.0 2.1 39 39
+ 0.4 3 1 cbr 800 ------- 2 3.0 2.1 60 60
- 0.4 3 1 cbr 800 ------- 2 3.0 2.1 60 60
r 0.402467 1 2 cbr 800 ------- 2 3.0 2.1 19 19
r 0.4032 3 1 cbr 800 ------- 2 3.0 2.1 40 40
+ 0.4032 1 2 cbr 800 ------- 2 3.0 2.1 40 40
- 0.4032 1 2 cbr 800 ------- 2 3.0 2.1 40 40
+ 0.405 3 1 cbr 800 ------- 2 3.0 2.1 61 61
- 0.405 3 1 cbr 800 ------- 2 3.0 2.1 61 61
r 0.407467 1 2 cbr 800 ------- 2 3.0 2.1 20 20
r 0.4082 3 1 cbr 800 ------- 2 3.0 2.1 41 41
+ 0.4082 1 2 cbr 800 ------- 2 3.0 2.1 41 41
- 0.4082 1 2 cbr 800 ------- 2 3.0 2.1 41 41
+ 0.41 3 1 cbr 800 ------- 2 3.0 2.1 62 62
- 0.41 3 1 cbr 800 ------- 2 3.0 2.1 62 62
r 0.412467 1 2 cbr 800 ------- 2 3.0 2.1 21 21
r 0.4132 3 1 cbr 800 ------- 2 3.0 2.1 42 42
+ 0.4132 1 2 cbr 800 ------- 2 3.0 2.1 42 42
- 0.4132 1 2 cbr 800 ------- 2 3.0 2.1 42 42
+ 0.415 3 1 cbr 800 ------- 2 3.0 2.1 63 63
- 0.415 3 1 cbr 800 ------- 2 3.0 2.1 63 63
r 0.417467 1 2 cbr 800 ------- 2 3.0 2.1 22 22
r 0.4182 3 1 cbr 800 ------- 2 3.0 2.1 43 43
+ 0.4182 1 2 cbr 800 ------- 2 3.0 2.1 43 43
- 0.4182 1 2 cbr 800 ------- 2 3.0 2.1 43 43
+ 0.42 3 1 cbr 800 ------- 2 3.0 2.1 64 64
- 0.42 3 1 cbr 800 ------- 2 3.0 2.1 64 64
r 0.422467 1 2 cbr 800 ------- 2 3.0 2.1 23 23
r 0.4232 3 1 cbr 800 ------- 2 3.0 2.1 44 44
+ 0.4232 1 2 cbr 800 ------- 2 3.0 2.1 44 44
- 0.4232 1 2 cbr 800 ------- 2 3.0 2.1 44 44
+ 0.425 3 1 cbr 800 ------- 2 3.0 2.1 65 65
- 0.425 3 1 cbr 800 ------- 2 3.0 2.1 65 65
r 0.427467 1 2 cbr 800 ------- 2 3.0 2.1 24 24
r 0.4282 3 1 cbr 800 ------- 2 3.0 2.1 45 45
+ 0.4282 1 2 cbr 800 ------- 2 3.0 2.1 45 45
- 0.4282 1 2 cbr 800 ------- 2 3.0 2.1 45 45
+ 0.43 3 1 cbr 800 ------- 2 3.0 2.1 66 66
- 0.43 3 1 cbr 800 ------- 2 3.0 2.1 66 66
r 0.432467 1 2 cbr 800 ------- 2 3.0 2.1 25 25
r 0.4332 3 1 cbr 800 ------- 2 3.0 2.1 46 46
+ 0.4332 1 2 cbr 800 ------- 2 3.0 2.1 46 46
- 0.4332 1 2 cbr 800 ------- 2 3.0 2.1 46 46
+ 0.435 3 1 cbr 800 ------- 2 3.0 2.1 67 67
- 0.435 3 1 cbr 800 ------- 2 3.0 2.1 67 67
r 0.437467 1 2 cbr 800 ------- 2 3.0 2.1 26 26
r 0.4382 3 1 cbr 800 ------- 2 3.0 2.1 47 47
+ 0.4382 1 2 cbr 800 ------- 2 3.0 2.1 47 47
- 0.4382 1 2 cbr 800 ------- 2 3.0 2.1 47 47
+ 0.44 3 1 cbr 800 ------- 2 3.0 2.1 68 68
- 0.44 3 1 cbr 800 ------- 2 3.0 2.1 68 68
r 0.442467 1 2 cbr 800 ------- 2 3.0 2.1 27 27
r 0.4432 3 1 cbr 800 ------- 2 3.0 2.1 48 48
+ 0.4432 1 2 cbr 800 ------- 2 3.0 2.1 48 48
- 0.4432 1 2 cbr 800 ------- 2 3.0 2.1 48 48
+ 0.445 3 1 cbr 800 ------- 2 3.0 2.1 69 69
- 0.445 3 1 cbr 800 ------- 2 3.0 2.1 69 69
r 0.447467 1 2 cbr 800 ------- 2 3.0 2.1 28 28
r 0.4482 3 1 cbr 800 ------- 2 3.0 2.1 49 49
+ 0.4482 1 2 cbr 800 ------- 2 3.0 2.1 49 49
- 0.4482 1 2 cbr 800 ------- 2 3.0 2.1 49 49
+ 0.45 3 1 cbr 800 ------- 2 3.0 2.1 70 70
- 0.45 3 1 cbr 800 ------- 2 3.0 2.1 70 70
r 0.452467 1 2 cbr 800 ------- 2 3.0 2.1 29 29
r 0.4532 3 1 cbr 800 ------- 2 3.0 2.1 50 50
+ 0.4532 1 2 cbr 800 ------- 2 3.0 2.1 50 50
- 0.4532 1 2 cbr 800 ------- 2 3.0 2.1 50 50
+ 0.455 3 1 cbr 800 ------- 2 3.0 2.1 71 71
- 0.455 3 1 cbr 800 ------- 2 3.0 2.1 71 71
r 0.457467 1 2 cbr 800 ------- 2 3.0 2.1 30 30
r 0.4582 3 1 cbr 800 ------- 2 3.0 2.1 51 51
+ 0.4582 1 2 cbr 800 ------- 2 3.0 2.1 51 51
- 0.4582 1 2 cbr 800 ------- 2 3.0 2.1 51 51
+ 0.46 3 1 cbr 800 ------- 2 3.0 2.1 72 72
- 0.46 3 1 cbr 800 ------- 2 3.0 2.1 72 72
r 0.462467 1 2 cbr 800 ------- 2 3.0 2.1 31 31
r 0.4632 3 1 cbr 800 ------- 2 3.0 2.1 52 52
+ 0.4632 1 2 cbr 800 ------- 2 3.0 2.1 52 52
- 0.4632 1 2 cbr 800 ------- 2 3.0 2.1 52 52
+ 0.465 3 1 cbr 800 ------- 2 3.0 2.1 73 73
- 0.465 3 1 cbr 800 ------- 2 3.0 2.1 73 73
r 0.467467 1 2 cbr 800 ------- 2 3.0 2.1 32 32
r 0.4682 3 1 cbr 800 ------- 2 3.0 2.1 53 53
+ 0.4682 1 2 cbr 800 ------- 2 3.0 2.1 53 53
- 0.4682 1 2 cbr 800 ------- 2 3.0 2.1 53 53
+ 0.47 3 1 cbr 800 ------- 2 3.0 2.1 74 74
- 0.47 3 1 cbr 800 ------- 2 3.0 2.1 74 74
r 0.472467 1 2 cbr 800 ------- 2 3.0 2.1 33 33
r 0.4732 3 1 cbr 800 ------- 2 3.0 2.1 54 54
+ 0.4732 1 2 cbr 800 ------- 2 3.0 2.1 54 54
- 0.4732 1 2 cbr 800 ------- 2 3.0 2.1 54 54
+ 0.475 3 1 cbr 800 ------- 2 3.0 2.1 75 75
- 0.475 3 1 cbr 800 ------- 2 3.0 2.1 75 75
r 0.477467 1 2 cbr 800 ------- 2 3.0 2.1 34 34
r 0.4782 3 1 cbr 800 ------- 2 3.0 2.1 55 55
+ 0.4782 1 2 cbr 800 ------- 2 3.0 2.1 55 55
- 0.4782 1 2 cbr 800 ------- 2 3.0 2.1 55 55
+ 0.48 3 1 cbr 800 ------- 2 3.0 2.1 76 76
- 0.48 3 1 cbr 800 ------- 2 3.0 2.1 76 76
r 0.482467 1 2 cbr 800 ------- 2 3.0 2.1 35 35
r 0.4832 3 1 cbr 800 ------- 2 3.0 2.1 56 56
+ 0.4832 1 2 cbr 800 ------- 2 3.0 2.1 56 56
- 0.4832 1 2 cbr 800 ------- 2 3.0 2.1 56 56
+ 0.485 3 1 cbr 800 ------- 2 3.0 2.1 77 77
- 0.485 3 1 cbr 800 ------- 2 3.0 2.1 77 77
r 0.487467 1 2 cbr 800 ------- 2 3.0 2.1 36 36
r 0.4882 3 1 cbr 800 ------- 2 3.0 2.1 57 57
+ 0.4882 1 2 cbr 800 ------- 2 3.0 2.1 57 57
- 0.4882 1 2 cbr 800 ------- 2 3.0 2.1 57 57
+ 0.49 3 1 cbr 800 ------- 2 3.0 2.1 78 78
- 0.49 3 1 cbr 800 ------- 2 3.0 2.1 78 78
r 0.492467 1 2 cbr 800 ------- 2 3.0 2.1 37 37
r 0.4932 3 1 cbr 800 ------- 2 3.0 2.1 58 58
+ 0.4932 1 2 cbr 800 ------- 2 3.0 2.1 58 58
- 0.4932 1 2 cbr 800 ------- 2 3.0 2.1 58 58
+ 0.495 3 1 cbr 800 ------- 2 3.0 2.1 79 79
- 0.495 3 1 cbr 800 ------- 2 3.0 2.1 79 79
r 0.497467 1 2 cbr 800 ------- 2 3.0 2.1 38 38
r 0.4982 3 1 cbr 800 ------- 2 3.0 2.1 59 59
+ 0.4982 1 2 cbr 800 ------- 2 3.0 2.1 59 59
- 0.4982 1 2 cbr 800 ------- 2 3.0 2.1 59 59
+ 0.5 3 1 cbr 800 ------- 2 3.0 2.1 80 80
- 0.5 3 1 cbr 800 ------- 2 3.0 2.1 80 80
r 0.502467 1 2 cbr 800 ------- 2 3.0 2.1 39 39
r 0.5032 3 1 cbr 800 ------- 2 3.0 2.1 60 60
+ 0.5032 1 2 cbr 800 ------- 2 3.0 2.1 60 60
- 0.5032 1 2 cbr 800 ------- 2 3.0 2.1 60 60
+ 0.505 3 1 cbr 800 ------- 2 3.0 2.1 81 81
- 0.505 3 1 cbr 800 ------- 2 3.0 2.1 81 81
r 0.507467 1 2 cbr 800 ------- 2 3.0 2.1 40 40
r 0.5082 3 1 cbr 800 ------- 2 3.0 2.1 61 61
+ 0.5082 1 2 cbr 800 ------- 2 3.0 2.1 61 61
- 0.5082 1 2 cbr 800 ------- 2 3.0 2.1 61 61
+ 0.51 3 1 cbr 800 ------- 2 3.0 2.1 82 82
- 0.51 3 1 cbr 800 ------- 2 3.0 2.1 82 82
r 0.512467 1 2 cbr 800 ------- 2 3.0 2.1 41 41
r 0.5132 3 1 cbr 800 ------- 2 3.0 2.1 62 62
+ 0.5132 1 2 cbr 800 ------- 2 3.0 2.1 62 62
- 0.5132 1 2 cbr 800 ------- 2 3.0 2.1 62 62
+ 0.515 3 1 cbr 800 ------- 2 3.0 2.1 83 83
- 0.515 3 1 cbr 800 ------- 2 3.0 2.1 83 83
r 0.517467 1 2 cbr 800 ------- 2 3.0 2.1 42 42
r 0.5182 3 1 cbr 800 ------- 2 3.0 2.1 63 63
+ 0.5182 1 2 cbr 800 ------- 2 3.0 2.1 63 63
- 0.5182 1 2 cbr 800 ------- 2 3.0 2.1 63 63
+ 0.52 3 1 cbr 800 ------- 2 3.0 2.1 84 84
- 0.52 3 1 cbr 800 ------- 2 3.0 2.1 84 84
r 0.522467 1 2 cbr 800 ------- 2 3.0 2.1 43 43
r 0.5232 3 1 cbr 800 ------- 2 3.0 2.1 64 64
+ 0.5232 1 2 cbr 800 ------- 2 3.0 2.1 64 64
- 0.5232 1 2 cbr 800 ------- 2 3.0 2.1 64 64
+ 0.525 3 1 cbr 800 ------- 2 3.0 2.1 85 85
- 0.525 3 1 cbr 800 ------- 2 3.0 2.1 85 85
r 0.527467 1 2 cbr 800 ------- 2 3.0 2.1 44 44
r 0.5282 3 1 cbr 800 ------- 2 3.0 2.1 65 65
+ 0.5282 1 2 cbr 800 ------- 2 3.0 2.1 65 65
- 0.5282 1 2 cbr 800 ------- 2 3.0 2.1 65 65
+ 0.53 3 1 cbr 800 ------- 2 3.0 2.1 86 86
- 0.53 3 1 cbr 800 ------- 2 3.0 2.1 86 86
r 0.532467 1 2 cbr 800 ------- 2 3.0 2.1 45 45
r 0.5332 3 1 cbr 800 ------- 2 3.0 2.1 66 66
+ 0.5332 1 2 cbr 800 ------- 2 3.0 2.1 66 66
- 0.5332 1 2 cbr 800 ------- 2 3.0 2.1 66 66
+ 0.535 3 1 cbr 800 ------- 2 3.0 2.1 87 87
- 0.535 3 1 cbr 800 ------- 2 3.0 2.1 87 87
r 0.537467 1 2 cbr 800 ------- 2 3.0 2.1 46 46
r 0.5382 3 1 cbr 800 ------- 2 3.0 2.1 67 67
+ 0.5382 1 2 cbr 800 ------- 2 3.0 2.1 67 67
- 0.5382 1 2 cbr 800 ------- 2 3.0 2.1 67 67
+ 0.54 3 1 cbr 800 ------- 2 3.0 2.1 88 88
- 0.54 3 1 cbr 800 ------- 2 3.0 2.1 88 88
r 0.542467 1 2 cbr 800 ------- 2 3.0 2.1 47 47
r 0.5432 3 1 cbr 800 ------- 2 3.0 2.1 68 68
+ 0.5432 1 2 cbr 800 ------- 2 3.0 2.1 68 68
- 0.5432 1 2 cbr 800 ------- 2 3.0 2.1 68 68
+ 0.545 3 1 cbr 800 ------- 2 3.0 2.1 89 89
- 0.545 3 1 cbr 800 ------- 2 3.0 2.1 89 89
r 0.547467 1 2 cbr 800 ------- 2 3.0 2.1 48 48
r 0.5482 3 1 cbr 800 ------- 2 3.0 2.1 69 69
+ 0.5482 1 2 cbr 800 ------- 2 3.0 2.1 69 69
- 0.5482 1 2 cbr 800 ------- 2 3.0 2.1 69 69
+ 0.55 3 1 cbr 800 ------- 2 3.0 2.1 90 90
- 0.55 3 1 cbr 800 ------- 2 3.0 2.1 90 90
r 0.552467 1 2 cbr 800 ------- 2 3.0 2.1 49 49
r 0.5532 3 1 cbr 800 ------- 2 3.0 2.1 70 70
+ 0.5532 1 2 cbr 800 ------- 2 3.0 2.1 70 70
- 0.5532 1 2 cbr 800 ------- 2 3.0 2.1 70 70
+ 0.555 3 1 cbr 800 ------- 2 3.0 2.1 91 91
- 0.555 3 1 cbr 800 ------- 2 3.0 2.1 91 91
r 0.557467 1 2 cbr 800 ------- 2 3.0 2.1 50 50
r 0.5582 3 1 cbr 800 ------- 2 3.0 2.1 71 71
+ 0.5582 1 2 cbr 800 ------- 2 3.0 2.1 71 71
- 0.5582 1 2 cbr 800 ------- 2 3.0 2.1 71 71
+ 0.56 3 1 cbr 800 ------- 2 3.0 2.1 92 92
- 0.56 3 1 cbr 800 ------- 2 3.0 2.1 92 92
r 0.562467 1 2 cbr 800 ------- 2 3.0 2.1 51 51
r 0.5632 3 1 cbr 800 ------- 2 3.0 2.1 72 72
+ 0.5632 1 2 cbr 800 ------- 2 3.0 2.1 72 72
- 0.5632 1 2 cbr 800 ------- 2 3.0 2.1 72 72
+ 0.565 3 1 cbr 800 ------- 2 3.0 2.1 93 93
- 0.565 3 1 cbr 800 ------- 2 3.0 2.1 93 93
r 0.567467 1 2 cbr 800 ------- 2 3.0 2.1 52 52
r 0.5682 3 1 cbr 800 ------- 2 3.0 2.1 73 73
+ 0.5682 1 2 cbr 800 ------- 2 3.0 2.1 73 73
- 0.5682 1 2 cbr 800 ------- 2 3.0 2.1 73 73
+ 0.57 3 1 cbr 800 ------- 2 3.0 2.1 94 94
- 0.57 3 1 cbr 800 ------- 2 3.0 2.1 94 94
r 0.572467 1 2 cbr 800 ------- 2 3.0 2.1 53 53
r 0.5732 3 1 cbr 800 ------- 2 3.0 2.1 74 74
+ 0.5732 1 2 cbr 800 ------- 2 3.0 2.1 74 74
- 0.5732 1 2 cbr 800 ------- 2 3.0 2.1 74 74
+ 0.575 3 1 cbr 800 ------- 2 3.0 2.1 95 95
- 0.575 3 1 cbr 800 ------- 2 3.0 2.1 95 95
r 0.577467 1 2 cbr 800 ------- 2 3.0 2.1 54 54
r 0.5782 3 1 cbr 800 ------- 2 3.0 2.1 75 75
+ 0.5782 1 2 cbr 800 ------- 2 3.0 2.1 75 75
- 0.5782 1 2 cbr 800 ------- 2 3.0 2.1 75 75
+ 0.58 3 1 cbr 800 ------- 2 3.0 2.1 96 96
- 0.58 3 1 cbr 800 ------- 2 3.0 2.1 96 96
r 0.582467 1 2 cbr 800 ------- 2 3.0 2.1 55 55
r 0.5832 3 1 cbr 800 ------- 2 3.0 2.1 76 76
+ 0.5832 1 2 cbr 800 ------- 2 3.0 2.1 76 76
- 0.5832 1 2 cbr 800 ------- 2 3.0 2.1 76 76
+ 0.585 3 1 cbr 800 ------- 2 3.0 2.1 97 97
- 0.585 3 1 cbr 800 ------- 2 3.0 2.1 97 97
r 0.587467 1 2 cbr 800 ------- 2 3.0 2.1 56 56
r 0.5882 3 1 cbr 800 ------- 2 3.0 2.1 77 77
+ 0.5882 1 2 cbr 800 ------- 2 3.0 2.1 77 77
- 0.5882 1 2 cbr 800 ------- 2 3.0 2.1 77 77
+ 0.59 3 1 cbr 800 ------- 2 3.0 2.1 98 98
- 0.59 3 1 cbr 800 ------- 2 3.0 2.1 98 98
r 0.592467 1 2 cbr 800 ------- 2 3.0 2.1 57 57
r 0.5932 3 1 cbr 800 ------- 2 3.0 2.1 78 78
+ 0.5932 1 2 cbr 800 ------- 2 3.0 2.1 78 78
- 0.5932 1 2 cbr 800 ------- 2 3.0 2.1 78 78
+ 0.595 3 1 cbr 800 ------- 2 3.0 2.1 99 99
- 0.595 3 1 cbr 800 ------- 2 3.0 2.1 99 99
r 0.597467 1 2 cbr 800 ------- 2 3.0 2.1 58 58
r 0.5982 3 1 cbr 800 ------- 2 3.0 2.1 79 79
+ 0.5982 1 2 cbr 800 ------- 2 3.0 2.1 79 79
- 0.5982 1 2 cbr 800 ------- 2 3.0 2.1 79 79
+ 0.6 3 1 cbr 800 ------- 2 3.0 2.1 100 100
- 0.6 3 1 cbr 800 ------- 2 3.0 2.1 100 100
r 0.602467 1 2 cbr 800 ------- 2 3.0 2.1 59 59
r 0.6032 3 1 cbr 800 ------- 2 3.0 2.1 80 80
+ 0.6032 1 2 cbr 800 ------- 2 3.0 2.1 80 80
- 0.6032 1 2 cbr 800 ------- 2 3.0 2.1 80 80
+ 0.605 3 1 cbr 800 ------- 2 3.0 2.1 101 101
- 0.605 3 1 cbr 800 ------- 2 3.0 2.1 101 101
r 0.607467 1 2 cbr 800 ------- 2 3.0 2.1 60 60
r 0.6082 3 1 cbr 800 ------- 2 3.0 2.1 81 81
+ 0.6082 1 2 cbr 800 ------- 2 3.0 2.1 81 81
- 0.6082 1 2 cbr 800 ------- 2 3.0 2.1 81 81
+ 0.61 3 1 cbr 800 ------- 2 3.0 2.1 102 102
- 0.61 3 1 cbr 800 ------- 2 3.0 2.1 102 102
r 0.612467 1 2 cbr 800 ------- 2 3.0 2.1 61 61
r 0.6132 3 1 cbr 800 ------- 2 3.0 2.1 82 82
+ 0.6132 1 2 cbr 800 ------- 2 3.0 2.1 82 82
- 0.6132 1 2 cbr 800 ------- 2 3.0 2.1 82 82
+ 0.615 3 1 cbr 800 ------- 2 3.0 2.1 103 103
- 0.615 3 1 cbr 800 ------- 2 3.0 2.1 103 103
r 0.617467 1 2 cbr 800 ------- 2 3.0 2.1 62 62
r 0.6182 3 1 cbr 800 ------- 2 3.0 2.1 83 83
+ 0.6182 1 2 cbr 800 ------- 2 3.0 2.1 83 83
- 0.6182 1 2 cbr 800 ------- 2 3.0 2.1 83 83
+ 0.62 3 1 cbr 800 ------- 2 3.0 2.1 104 104
- 0.62 3 1 cbr 800 ------- 2 3.0 2.1 104 104
r 0.622467 1 2 cbr 800 ------- 2 3.0 2.1 63 63
r 0.6232 3 1 cbr 800 ------- 2 3.0 2.1 84 84
+ 0.6232 1 2 cbr 800 ------- 2 3.0 2.1 84 84
- 0.6232 1 2 cbr 800 ------- 2 3.0 2.1 84 84
+ 0.625 3 1 cbr 800 ------- 2 3.0 2.1 105 105
- 0.625 3 1 cbr 800 ------- 2 3.0 2.1 105 105
r 0.627467 1 2 cbr 800 ------- 2 3.0 2.1 64 64
r 0.6282 3 1 cbr 800 ------- 2 3.0 2.1 85 85
+ 0.6282 1 2 cbr 800 ------- 2 3.0 2.1 85 85
- 0.6282 1 2 cbr 800 ------- 2 3.0 2.1 85 85
+ 0.63 3 1 cbr 800 ------- 2 3.0 2.1 106 106
- 0.63 3 1 cbr 800 ------- 2 3.0 2.1 106 106
r 0.632467 1 2 cbr 800 ------- 2 3.0 2.1 65 65
r 0.6332 3 1 cbr 800 ------- 2 3.0 2.1 86 86
+ 0.6332 1 2 cbr 800 ------- 2 3.0 2.1 86 86
- 0.6332 1 2 cbr 800 ------- 2 3.0 2.1 86 86
+ 0.635 3 1 cbr 800 ------- 2 3.0 2.1 107 107
- 0.635 3 1 cbr 800 ------- 2 3.0 2.1 107 107
r 0.637467 1 2 cbr 800 ------- 2 3.0 2.1 66 66
r 0.6382 3 1 cbr 800 ------- 2 3.0 2.1 87 87
+ 0.6382 1 2 cbr 800 ------- 2 3.0 2.1 87 87
- 0.6382 1 2 cbr 800 ------- 2 3.0 2.1 87 87
+ 0.64 3 1 cbr 800 ------- 2 3.0 2.1 108 108
- 0.64 3 1 cbr 800 ------- 2 3.0 2.1 108 108
r 0.642467 1 2 cbr 800 ------- 2 3.0 2.1 67 67
r 0.6432 3 1 cbr 800 ------- 2 3.0 2.1 88 88
+ 0.6432 1 2 cbr 800 ------- 2 3.0 2.1 88 88
- 0.6432 1 2 cbr 800 ------- 2 3.0 2.1 88 88
+ 0.645 3 1 cbr 800 ------- 2 3.0 2.1 109 109
- 0.645 3 1 cbr 800 ------- 2 3.0 2.1 109 109
r 0.647467 1 2 cbr 800 ------- 2 3.0 2.1 68 68
r 0.6482 3 1 cbr 800 ------- 2 3.0 2.1 89 89
+ 0.6482 1 2 cbr 800 ------- 2 3.0 2.1 89 89
- 0.6482 1 2 cbr 800 ------- 2 3.0 2.1 89 89
+ 0.65 3 1 cbr 800 ------- 2 3.0 2.1 110 110
- 0.65 3 1 cbr 800 ------- 2 3.0 2.1 110 110
r 0.652467 1 2 cbr 800 ------- 2 3.0 2.1 69 69
r 0.6532 3 1 cbr 800 ------- 2 3.0 2.1 90 90
+ 0.6532 1 2 cbr 800 ------- 2 3.0 2.1 90 90
- 0.6532 1 2 cbr 800 ------- 2 3.0 2.1 90 90
+ 0.655 3 1 cbr 800 ------- 2 3.0 2.1 111 111
- 0.655 3 1 cbr 800 ------- 2 3.0 2.1 111 111
r 0.657467 1 2 cbr 800 ------- 2 3.0 2.1 70 70
r 0.6582 3 1 cbr 800 ------- 2 3.0 2.1 91 91
+ 0.6582 1 2 cbr 800 ------- 2 3.0 2.1 91 91
- 0.6582 1 2 cbr 800 ------- 2 3.0 2.1 91 91
+ 0.66 3 1 cbr 800 ------- 2 3.0 2.1 112 112
- 0.66 3 1 cbr 800 ------- 2 3.0 2.1 112 112
r 0.662467 1 2 cbr 800 ------- 2 3.0 2.1 71 71
r 0.6632 3 1 cbr 800 ------- 2 3.0 2.1 92 92
+ 0.6632 1 2 cbr 800 ------- 2 3.0 2.1 92 92
- 0.6632 1 2 cbr 800 ------- 2 3.0 2.1 92 92
+ 0.665 3 1 cbr 800 ------- 2 3.0 2.1 113 113
- 0.665 3 1 cbr 800 ------- 2 3.0 2.1 113 113
r 0.667467 1 2 cbr 800 ------- 2 3.0 2.1 72 72
r 0.6682 3 1 cbr 800 ------- 2 3.0 2.1 93 93
+ 0.6682 1 2 cbr 800 ------- 2 3.0 2.1 93 93
- 0.6682 1 2 cbr 800 ------- 2 3.0 2.1 93 93
+ 0.67 3 1 cbr 800 ------- 2 3.0 2.1 114 114
- 0.67 3 1 cbr 800 ------- 2 3.0 2.1 114 114
r 0.672467 1 2 cbr 800 ------- 2 3.0 2.1 73 73
r 0.6732 3 1 cbr 800 ------- 2 3.0 2.1 94 94
+ 0.6732 1 2 cbr 800 ------- 2 3.0 2.1 94 94
- 0.6732 1 2 cbr 800 ------- 2 3.0 2.1 94 94
+ 0.675 3 1 cbr 800 ------- 2 3.0 2.1 115 115
- 0.675 3 1 cbr 800 ------- 2 3.0 2.1 115 115
r 0.677467 1 2 cbr 800 ------- 2 3.0 2.1 74 74
r 0.6782 3 1 cbr 800 ------- 2 3.0 2.1 95 95
+ 0.6782 1 2 cbr 800 ------- 2 3.0 2.1 95 95
- 0.6782 1 2 cbr 800 ------- 2 3.0 2.1 95 95
+ 0.68 3 1 cbr 800 ------- 2 3.0 2.1 116 116
- 0.68 3 1 cbr 800 ------- 2 3.0 2.1 116 116
r 0.682467 1 2 cbr 800 ------- 2 3.0 2.1 75 75
r 0.6832 3 1 cbr 800 ------- 2 3.0 2.1 96 96
+ 0.6832 1 2 cbr 800 ------- 2 3.0 2.1 96 96
- 0.6832 1 2 cbr 800 ------- 2 3.0 2.1 96 96
+ 0.685 3 1 cbr 800 ------- 2 3.0 2.1 117 117
- 0.685 3 1 cbr 800 ------- 2 3.0 2.1 117 117
r 0.687467 1 2 cbr 800 ------- 2 3.0 2.1 76 76
r 0.6882 3 1 cbr 800 ------- 2 3.0 2.1 97 97
+ 0.6882 1 2 cbr 800 ------- 2 3.0 2.1 97 97
- 0.6882 1 2 cbr 800 ------- 2 3.0 2.1 97 97
+ 0.69 3 1 cbr 800 ------- 2 3.0 2.1 118 118
- 0.69 3 1 cbr 800 ------- 2 3.0 2.1 118 118
r 0.692467 1 2 cbr 800 ------- 2 3.0 2.1 77 77
r 0.6932 3 1 cbr 800 ------- 2 3.0 2.1 98 98
+ 0.6932 1 2 cbr 800 ------- 2 3.0 2.1 98 98
- 0.6932 1 2 cbr 800 ------- 2 3.0 2.1 98 98
+ 0.695 3 1 cbr 800 ------- 2 3.0 2.1 119 119
- 0.695 3 1 cbr 800 ------- 2 3.0 2.1 119 119
r 0.697467 1 2 cbr 800 ------- 2 3.0 2.1 78 78
r 0.6982 3 1 cbr 800 ------- 2 3.0 2.1 99 99
+ 0.6982 1 2 cbr 800 ------- 2 3.0 2.1 99 99
- 0.6982 1 2 cbr 800 ------- 2 3.0 2.1 99 99
+ 0.7 3 1 cbr 800 ------- 2 3.0 2.1 120 120
- 0.7 3 1 cbr 800 ------- 2 3.0 2.1 120 120
r 0.702467 1 2 cbr 800 ------- 2 3.0 2.1 79 79
r 0.7032 3 1 cbr 800 ------- 2 3.0 2.1 100 100
+ 0.7032 1 2 cbr 800 ------- 2 3.0 2.1 100 100
- 0.7032 1 2 cbr 800 ------- 2 3.0 2.1 100 100
+ 0.705 3 1 cbr 800 ------- 2 3.0 2.1 121 121
- 0.705 3 1 cbr 800 ------- 2 3.0 2.1 121 121
r 0.707467 1 2 cbr 800 ------- 2 3.0 2.1 80 80
r 0.7082 3 1 cbr 800 ------- 2 3.0 2.1 101 101
+ 0.7082 1 2 cbr 800 ------- 2 3.0 2.1 101 101
- 0.7082 1 2 cbr 800 ------- 2 3.0 2.1 101 101
+ 0.71 3 1 cbr 800 ------- 2 3.0 2.1 122 122
- 0.71 3 1 cbr 800 ------- 2 3.0 2.1 122 122
r 0.712467 1 2 cbr 800 ------- 2 3.0 2.1 81 81
r 0.7132 3 1 cbr 800 ------- 2 3.0 2.1 102 102
+ 0.7132 1 2 cbr 800 ------- 2 3.0 2.1 102 102
- 0.7132 1 2 cbr 800 ------- 2 3.0 2.1 102 102
+ 0.715 3 1 cbr 800 ------- 2 3.0 2.1 123 123
- 0.715 3 1 cbr 800 ------- 2 3.0 2.1 123 123
r 0.717467 1 2 cbr 800 ------- 2 3.0 2.1 82 82
r 0.7182 3 1 cbr 800 ------- 2 3.0 2.1 103 103
+ 0.7182 1 2 cbr 800 ------- 2 3.0 2.1 103 103
- 0.7182 1 2 cbr 800 ------- 2 3.0 2.1 103 103
+ 0.72 3 1 cbr 800 ------- 2 3.0 2.1 124 124
- 0.72 3 1 cbr 800 ------- 2 3.0 2.1 124 124
r 0.722467 1 2 cbr 800 ------- 2 3.0 2.1 83 83
r 0.7232 3 1 cbr 800 ------- 2 3.0 2.1 104 104
+ 0.7232 1 2 cbr 800 ------- 2 3.0 2.1 104 104
- 0.7232 1 2 cbr 800 ------- 2 3.0 2.1 104 104
+ 0.725 3 1 cbr 800 ------- 2 3.0 2.1 125 125
- 0.725 3 1 cbr 800 ------- 2 3.0 2.1 125 125
r 0.727467 1 2 cbr 800 ------- 2 3.0 2.1 84 84
r 0.7282 3 1 cbr 800 ------- 2 3.0 2.1 105 105
+ 0.7282 1 2 cbr 800 ------- 2 3.0 2.1 105 105
- 0.7282 1 2 cbr 800 ------- 2 3.0 2.1 105 105
+ 0.73 3 1 cbr 800 ------- 2 3.0 2.1 126 126
- 0.73 3 1 cbr 800 ------- 2 3.0 2.1 126 126
r 0.732467 1 2 cbr 800 ------- 2 3.0 2.1 85 85
r 0.7332 3 1 cbr 800 ------- 2 3.0 2.1 106 106
+ 0.7332 1 2 cbr 800 ------- 2 3.0 2.1 106 106
- 0.7332 1 2 cbr 800 ------- 2 3.0 2.1 106 106
+ 0.735 3 1 cbr 800 ------- 2 3.0 2.1 127 127
- 0.735 3 1 cbr 800 ------- 2 3.0 2.1 127 127
r 0.737467 1 2 cbr 800 ------- 2 3.0 2.1 86 86
r 0.7382 3 1 cbr 800 ------- 2 3.0 2.1 107 107
+ 0.7382 1 2 cbr 800 ------- 2 3.0 2.1 107 107
- 0.7382 1 2 cbr 800 ------- 2 3.0 2.1 107 107
+ 0.74 3 1 cbr 800 ------- 2 3.0 2.1 128 128
- 0.74 3 1 cbr 800 ------- 2 3.0 2.1 128 128
r 0.742467 1 2 cbr 800 ------- 2 3.0 2.1 87 87