+ 0.1 0 1 tcp 40 ------- 1 0.0 3.0 0 0
- 0.1 0 1 tcp 40 ------- 1 0.0 3.0 0 0
r 0.11032 0 1 tcp 40 ------- 1 0.0 3.0 0 0
+ 0.11032 1 2 tcp 40 ------- 1 0.0 3.0 0 0
- 0.11032 1 2 tcp 40 ------- 1 0.0 3.0 0 0
r 0.12064 1 2 tcp 40 ------- 1 0.0 3.0 0 0
+ 0.12064 2 3 tcp 40 ------- 1 0.0 3.0 0 0
- 0.12064 2 3 tcp 40 ------- 1 0.0 3.0 0 0
r 0.13096 2 3 tcp 40 ------- 1 0.0 3.0 0 0
+ 0.13096 3 2 ack 40 ------- 1 3.0 0.0 0 1
- 0.13096 3 2 ack 40 ------- 1 3.0 0.0 0 1
r 0.14128 3 2 ack 40 ------- 1 3.0 0.0 0 1
+ 0.14128 2 1 ack 40 ------- 1 3.0 0.0 0 1
- 0.14128 2 1 ack 40 ------- 1 3.0 0.0 0 1
r 0.1516 2 1 ack 40 ------- 1 3.0 0.0 0 1
+ 0.1516 1 0 ack 40 ------- 1 3.0 0.0 0 1
- 0.1516 1 0 ack 40 ------- 1 3.0 0.0 0 1
r 0.16192 1 0 ack 40 ------- 1 3.0 0.0 0 1
+ 0.16192 0 1 tcp 1040 ------- 1 0.0 3.0 1 2
- 0.16192 0 1 tcp 1040 ------- 1 0.0 3.0 1 2
+ 0.16192 0 1 tcp 1040 ------- 1 0.0 3.0 2 3
- 0.17024 0 1 tcp 1040 ------- 1 0.0 3.0 2 3
r 0.18024 0 1 tcp 1040 ------- 1 0.0 3.0 1 2
+ 0.18024 1 2 tcp 1040 ------- 1 0.0 3.0 1 2
- 0.18024 1 2 tcp 1040 ------- 1 0.0 3.0 1 2
r 0.18856 0 1 tcp 1040 ------- 1 0.0 3.0 2 3
+ 0.18856 1 2 tcp 1040 ------- 1 0.0 3.0 2 3
- 0.18856 1 2 tcp 1040 ------- 1 0.0 3.0 2 3
r 0.19856 1 2 tcp 1040 ------- 1 0.0 3.0 1 2
+ 0.19856 2 3 tcp 1040 ------- 1 0.0 3.0 1 2
- 0.19856 2 3 tcp 1040 ------- 1 0.0 3.0 1 2
r 0.20688 1 2 tcp 1040 ------- 1 0.0 3.0 2 3
+ 0.20688 2 3 tcp 1040 ------- 1 0.0 3.0 2 3
- 0.20688 2 3 tcp 1040 ------- 1 0.0 3.0 2 3
r 0.21688 2 3 tcp 1040 ------- 1 0.0 3.0 1 2
+ 0.21688 3 2 ack 40 ------- 1 3.0 0.0 1 4
- 0.21688 3 2 ack 40 ------- 1 3.0 0.0 1 4
r 0.2252 2 3 tcp 1040 ------- 1 0.0 3.0 2 3
+ 0.2252 3 2 ack 40 ------- 1 3.0 0.0 2 5
- 0.2252 3 2 ack 40 ------- 1 3.0 0.0 2 5
r 0.2272 3 2 ack 40 ------- 1 3.0 0.0 1 4
+ 0.2272 2 1 ack 40 ------- 1 3.0 0.0 1 4
- 0.2272 2 1 ack 40 ------- 1 3.0 0.0 1 4
r 0.23552 3 2 ack 40 ------- 1 3.0 0.0 2 5
+ 0.23552 2 1 ack 40 ------- 1 3.0 0.0 2 5
- 0.23552 2 1 ack 40 ------- 1 3.0 0.0 2 5
r 0.23752 2 1 ack 40 ------- 1 3.0 0.0 1 4
+ 0.23752 1 0 ack 40 ------- 1 3.0 0.0 1 4
- 0.23752 1 0 ack 40 ------- 1 3.0 0.0 1 4
r 0.24584 2 1 ack 40 ------- 1 3.0 0.0 2 5
+ 0.24584 1 0 ack 40 ------- 1 3.0 0.0 2 5
- 0.24584 1 0 ack 40 ------- 1 3.0 0.0 2 5
r 0.24784 1 0 ack 40 ------- 1 3.0 0.0 1 4
+ 0.24784 0 1 tcp 1040 ------- 1 0.0 3.0 3 6
- 0.24784 0 1 tcp 1040 ------- 1 0.0 3.0 3 6
+ 0.24784 0 1 tcp 1040 ------- 1 0.0 3.0 4 7
r 0.25616 1 0 ack 40 ------- 1 3.0 0.0 2 5
+ 0.25616 0 1 tcp 1040 ------- 1 0.0 3.0 5 8
+ 0.25616 0 1 tcp 1040 ------- 1 0.0 3.0 6 9
- 0.25616 0 1 tcp 1040 ------- 1 0.0 3.0 4 7
- 0.26448 0 1 tcp 1040 ------- 1 0.0 3.0 5 8
r 0.26616 0 1 tcp 1040 ------- 1 0.0 3.0 3 6
+ 0.26616 1 2 tcp 1040 ------- 1 0.0 3.0 3 6
- 0.26616 1 2 tcp 1040 ------- 1 0.0 3.0 3 6
- 0.2728 0 1 tcp 1040 ------- 1 0.0 3.0 6 9
r 0.27448 0 1 tcp 1040 ------- 1 0.0 3.0 4 7
+ 0.27448 1 2 tcp 1040 ------- 1 0.0 3.0 4 7
- 0.27448 1 2 tcp 1040 ------- 1 0.0 3.0 4 7
r 0.2828 0 1 tcp 1040 ------- 1 0.0 3.0 5 8
+ 0.2828 1 2 tcp 1040 ------- 1 0.0 3.0 5 8
- 0.2828 1 2 tcp 1040 ------- 1 0.0 3.0 5 8
r 0.28448 1 2 tcp 1040 ------- 1 0.0 3.0 3 6
+ 0.28448 2 3 tcp 1040 ------- 1 0.0 3.0 3 6
- 0.28448 2 3 tcp 1040 ------- 1 0.0 3.0 3 6
r 0.29112 0 1 tcp 1040 ------- 1 0.0 3.0 6 9
+ 0.29112 1 2 tcp 1040 ------- 1 0.0 3.0 6 9
- 0.29112 1 2 tcp 1040 ------- 1 0.0 3.0 6 9
r 0.2928 1 2 tcp 1040 ------- 1 0.0 3.0 4 7
+ 0.2928 2 3 tcp 1040 ------- 1 0.0 3.0 4 7
- 0.2928 2 3 tcp 1040 ------- 1 0.0 3.0 4 7
r 0.30112 1 2 tcp 1040 ------- 1 0.0 3.0 5 8
+ 0.30112 2 3 tcp 1040 ------- 1 0.0 3.0 5 8
- 0.30112 2 3 tcp 1040 ------- 1 0.0 3.0 5 8
r 0.3028 2 3 tcp 1040 ------- 1 0.0 3.0 3 6
+ 0.3028 3 2 ack 40 ------- 1 3.0 0.0 3 10
- 0.3028 3 2 ack 40 ------- 1 3.0 0.0 3 10
r 0.30944 1 2 tcp 1040 ------- 1 0.0 3.0 6 9
+ 0.30944 2 3 tcp 1040 ------- 1 0.0 3.0 6 9
- 0.30944 2 3 tcp 1040 ------- 1 0.0 3.0 6 9
r 0.31112 2 3 tcp 1040 ------- 1 0.0 3.0 4 7
+ 0.31112 3 2 ack 40 ------- 1 3.0 0.0 4 11
- 0.31112 3 2 ack 40 ------- 1 3.0 0.0 4 11
r 0.31312 3 2 ack 40 ------- 1 3.0 0.0 3 10
+ 0.31312 2 1 ack 40 ------- 1 3.0 0.0 3 10
- 0.31312 2 1 ack 40 ------- 1 3.0 0.0 3 10
r 0.31944 2 3 tcp 1040 ------- 1 0.0 3.0 5 8
+ 0.31944 3 2 ack 40 ------- 1 3.0 0.0 5 12
- 0.31944 3 2 ack 40 ------- 1 3.0 0.0 5 12
r 0.32144 3 2 ack 40 ------- 1 3.0 0.0 4 11
+ 0.32144 2 1 ack 40 ------- 1 3.0 0.0 4 11
- 0.32144 2 1 ack 40 ------- 1 3.0 0.0 4 11
r 0.32344 2 1 ack 40 ------- 1 3.0 0.0 3 10
+ 0.32344 1 0 ack 40 ------- 1 3.0 0.0 3 10
- 0.32344 1 0 ack 40 ------- 1 3.0 0.0 3 10
r 0.32776 2 3 tcp 1040 ------- 1 0.0 3.0 6 9
+ 0.32776 3 2 ack 40 ------- 1 3.0 0.0 6 13
- 0.32776 3 2 ack 40 ------- 1 3.0 0.0 6 13
r 0.32976 3 2 ack 40 ------- 1 3.0 0.0 5 12
+ 0.32976 2 1 ack 40 ------- 1 3.0 0.0 5 12
- 0.32976 2 1 ack 40 ------- 1 3.0 0.0 5 12
r 0.33176 2 1 ack 40 ------- 1 3.0 0.0 4 11
+ 0.33176 1 0 ack 40 ------- 1 3.0 0.0 4 11
- 0.33176 1 0 ack 40 ------- 1 3.0 0.0 4 11
r 0.33376 1 0 ack 40 ------- 1 3.0 0.0 3 10
+ 0.33376 0 1 tcp 1040 ------- 1 0.0 3.0 7 14
- 0.33376 0 1 tcp 1040 ------- 1 0.0 3.0 7 14
+ 0.33376 0 1 tcp 1040 ------- 1 0.0 3.0 8 15
r 0.33808 3 2 ack 40 ------- 1 3.0 0.0 6 13
+ 0.33808 2 1 ack 40 ------- 1 3.0 0.0 6 13
- 0.33808 2 1 ack 40 ------- 1 3.0 0.0 6 13
r 0.34008 2 1 ack 40 ------- 1 3.0 0.0 5 12
+ 0.34008 1 0 ack 40 ------- 1 3.0 0.0 5 12
- 0.34008 1 0 ack 40 ------- 1 3.0 0.0 5 12
- 0.34208 0 1 tcp 1040 ------- 1 0.0 3.0 8 15
r 0.34208 1 0 ack 40 ------- 1 3.0 0.0 4 11
+ 0.34208 0 1 tcp 1040 ------- 1 0.0 3.0 9 16
+ 0.34208 0 1 tcp 1040 ------- 1 0.0 3.0 10 17
r 0.3484 2 1 ack 40 ------- 1 3.0 0.0 6 13
+ 0.3484 1 0 ack 40 ------- 1 3.0 0.0 6 13
- 0.3484 1 0 ack 40 ------- 1 3.0 0.0 6 13
- 0.3504 0 1 tcp 1040 ------- 1 0.0 3.0 9 16
r 0.3504 1 0 ack 40 ------- 1 3.0 0.0 5 12
+ 0.3504 0 1 tcp 1040 ------- 1 0.0 3.0 11 18
+ 0.3504 0 1 tcp 1040 ------- 1 0.0 3.0 12 19
r 0.35208 0 1 tcp 1040 ------- 1 0.0 3.0 7 14
+ 0.35208 1 2 tcp 1040 ------- 1 0.0 3.0 7 14
- 0.35208 1 2 tcp 1040 ------- 1 0.0 3.0 7 14
- 0.35872 0 1 tcp 1040 ------- 1 0.0 3.0 10 17
r 0.35872 1 0 ack 40 ------- 1 3.0 0.0 6 13
+ 0.35872 0 1 tcp 1040 ------- 1 0.0 3.0 13 20
+ 0.35872 0 1 tcp 1040 ------- 1 0.0 3.0 14 21
r 0.3604 0 1 tcp 1040 ------- 1 0.0 3.0 8 15
+ 0.3604 1 2 tcp 1040 ------- 1 0.0 3.0 8 15
- 0.3604 1 2 tcp 1040 ------- 1 0.0 3.0 8 15
- 0.36704 0 1 tcp 1040 ------- 1 0.0 3.0 11 18
r 0.36872 0 1 tcp 1040 ------- 1 0.0 3.0 9 16
+ 0.36872 1 2 tcp 1040 ------- 1 0.0 3.0 9 16
- 0.36872 1 2 tcp 1040 ------- 1 0.0 3.0 9 16
r 0.3704 1 2 tcp 1040 ------- 1 0.0 3.0 7 14
+ 0.3704 2 3 tcp 1040 ------- 1 0.0 3.0 7 14
- 0.3704 2 3 tcp 1040 ------- 1 0.0 3.0 7 14
- 0.37536 0 1 tcp 1040 ------- 1 0.0 3.0 12 19
r 0.37704 0 1 tcp 1040 ------- 1 0.0 3.0 10 17
+ 0.37704 1 2 tcp 1040 ------- 1 0.0 3.0 10 17
- 0.37704 1 2 tcp 1040 ------- 1 0.0 3.0 10 17
r 0.37872 1 2 tcp 1040 ------- 1 0.0 3.0 8 15
+ 0.37872 2 3 tcp 1040 ------- 1 0.0 3.0 8 15
- 0.37872 2 3 tcp 1040 ------- 1 0.0 3.0 8 15
- 0.38368 0 1 tcp 1040 ------- 1 0.0 3.0 13 20
r 0.38536 0 1 tcp 1040 ------- 1 0.0 3.0 11 18
+ 0.38536 1 2 tcp 1040 ------- 1 0.0 3.0 11 18
- 0.38536 1 2 tcp 1040 ------- 1 0.0 3.0 11 18
r 0.38704 1 2 tcp 1040 ------- 1 0.0 3.0 9 16
+ 0.38704 2 3 tcp 1040 ------- 1 0.0 3.0 9 16
- 0.38704 2 3 tcp 1040 ------- 1 0.0 3.0 9 16
r 0.38872 2 3 tcp 1040 ------- 1 0.0 3.0 7 14
+ 0.38872 3 2 ack 40 ------- 1 3.0 0.0 7 22
- 0.38872 3 2 ack 40 ------- 1 3.0 0.0 7 22
- 0.392 0 1 tcp 1040 ------- 1 0.0 3.0 14 21
r 0.39368 0 1 tcp 1040 ------- 1 0.0 3.0 12 19
+ 0.39368 1 2 tcp 1040 ------- 1 0.0 3.0 12 19
- 0.39368 1 2 tcp 1040 ------- 1 0.0 3.0 12 19
r 0.39536 1 2 tcp 1040 ------- 1 0.0 3.0 10 17
+ 0.39536 2 3 tcp 1040 ------- 1 0.0 3.0 10 17
- 0.39536 2 3 tcp 1040 ------- 1 0.0 3.0 10 17
r 0.39704 2 3 tcp 1040 ------- 1 0.0 3.0 8 15
+ 0.39704 3 2 ack 40 ------- 1 3.0 0.0 8 23
- 0.39704 3 2 ack 40 ------- 1 3.0 0.0 8 23
r 0.39904 3 2 ack 40 ------- 1 3.0 0.0 7 22
+ 0.39904 2 1 ack 40 ------- 1 3.0 0.0 7 22
- 0.39904 2 1 ack 40 ------- 1 3.0 0.0 7 22
r 0.402 0 1 tcp 1040 ------- 1 0.0 3.0 13 20
+ 0.402 1 2 tcp 1040 ------- 1 0.0 3.0 13 20
- 0.402 1 2 tcp 1040 ------- 1 0.0 3.0 13 20
r 0.40368 1 2 tcp 1040 ------- 1 0.0 3.0 11 18
+ 0.40368 2 3 tcp 1040 ------- 1 0.0 3.0 11 18
- 0.40368 2 3 tcp 1040 ------- 1 0.0 3.0 11 18
r 0.40536 2 3 tcp 1040 ------- 1 0.0 3.0 9 16
+ 0.40536 3 2 ack 40 ------- 1 3.0 0.0 9 24
- 0.40536 3 2 ack 40 ------- 1 3.0 0.0 9 24
r 0.40736 3 2 ack 40 ------- 1 3.0 0.0 8 23
+ 0.40736 2 1 ack 40 ------- 1 3.0 0.0 8 23
- 0.40736 2 1 ack 40 ------- 1 3.0 0.0 8 23
r 0.40936 2 1 ack 40 ------- 1 3.0 0.0 7 22
+ 0.40936 1 0 ack 40 ------- 1 3.0 0.0 7 22
- 0.40936 1 0 ack 40 ------- 1 3.0 0.0 7 22
r 0.41032 0 1 tcp 1040 ------- 1 0.0 3.0 14 21
+ 0.41032 1 2 tcp 1040 ------- 1 0.0 3.0 14 21
- 0.41032 1 2 tcp 1040 ------- 1 0.0 3.0 14 21
r 0.412 1 2 tcp 1040 ------- 1 0.0 3.0 12 19
+ 0.412 2 3 tcp 1040 ------- 1 0.0 3.0 12 19
- 0.412 2 3 tcp 1040 ------- 1 0.0 3.0 12 19
r 0.41368 2 3 tcp 1040 ------- 1 0.0 3.0 10 17
+ 0.41368 3 2 ack 40 ------- 1 3.0 0.0 10 25
- 0.41368 3 2 ack 40 ------- 1 3.0 0.0 10 25
r 0.41568 3 2 ack 40 ------- 1 3.0 0.0 9 24
+ 0.41568 2 1 ack 40 ------- 1 3.0 0.0 9 24
- 0.41568 2 1 ack 40 ------- 1 3.0 0.0 9 24
r 0.41768 2 1 ack 40 ------- 1 3.0 0.0 8 23
+ 0.41768 1 0 ack 40 ------- 1 3.0 0.0 8 23
- 0.41768 1 0 ack 40 ------- 1 3.0 0.0 8 23
r 0.41968 1 0 ack 40 ------- 1 3.0 0.0 7 22
+ 0.41968 0 1 tcp 1040 ------- 1 0.0 3.0 15 26
- 0.41968 0 1 tcp 1040 ------- 1 0.0 3.0 15 26
+ 0.41968 0 1 tcp 1040 ------- 1 0.0 3.0 16 27
r 0.42032 1 2 tcp 1040 ------- 1 0.0 3.0 13 20
+ 0.42032 2 3 tcp 1040 ------- 1 0.0 3.0 13 20
- 0.42032 2 3 tcp 1040 ------- 1 0.0 3.0 13 20
r 0.422 2 3 tcp 1040 ------- 1 0.0 3.0 11 18
+ 0.422 3 2 ack 40 ------- 1 3.0 0.0 11 28
- 0.422 3 2 ack 40 ------- 1 3.0 0.0 11 28
r 0.424 3 2 ack 40 ------- 1 3.0 0.0 10 25
+ 0.424 2 1 ack 40 ------- 1 3.0 0.0 10 25
- 0.424 2 1 ack 40 ------- 1 3.0 0.0 10 25
r 0.426 2 1 ack 40 ------- 1 3.0 0.0 9 24
+ 0.426 1 0 ack 40 ------- 1 3.0 0.0 9 24
- 0.426 1 0 ack 40 ------- 1 3.0 0.0 9 24
r 0.428 1 0 ack 40 ------- 1 3.0 0.0 8 23
+ 0.428 0 1 tcp 1040 ------- 1 0.0 3.0 17 29
+ 0.428 0 1 tcp 1040 ------- 1 0.0 3.0 18 30
- 0.428 0 1 tcp 1040 ------- 1 0.0 3.0 16 27
r 0.42864 1 2 tcp 1040 ------- 1 0.0 3.0 14 21
+ 0.42864 2 3 tcp 1040 ------- 1 0.0 3.0 14 21
- 0.42864 2 3 tcp 1040 ------- 1 0.0 3.0 14 21
r 0.43032 2 3 tcp 1040 ------- 1 0.0 3.0 12 19
+ 0.43032 3 2 ack 40 ------- 1 3.0 0.0 12 31
- 0.43032 3 2 ack 40 ------- 1 3.0 0.0 12 31
r 0.43232 3 2 ack 40 ------- 1 3.0 0.0 11 28
+ 0.43232 2 1 ack 40 ------- 1 3.0 0.0 11 28
- 0.43232 2 1 ack 40 ------- 1 3.0 0.0 11 28
r 0.43432 2 1 ack 40 ------- 1 3.0 0.0 10 25
+ 0.43432 1 0 ack 40 ------- 1 3.0 0.0 10 25
- 0.43432 1 0 ack 40 ------- 1 3.0 0.0 10 25
r 0.43632 1 0 ack 40 ------- 1 3.0 0.0 9 24
+ 0.43632 0 1 tcp 1040 ------- 1 0.0 3.0 19 32
+ 0.43632 0 1 tcp 1040 ------- 1 0.0 3.0 20 33
- 0.43632 0 1 tcp 1040 ------- 1 0.0 3.0 17 29
r 0.438 0 1 tcp 1040 ------- 1 0.0 3.0 15 26
+ 0.438 1 2 tcp 1040 ------- 1 0.0 3.0 15 26
- 0.438 1 2 tcp 1040 ------- 1 0.0 3.0 15 26
r 0.43864 2 3 tcp 1040 ------- 1 0.0 3.0 13 20
+ 0.43864 3 2 ack 40 ------- 1 3.0 0.0 13 34
- 0.43864 3 2 ack 40 ------- 1 3.0 0.0 13 34
r 0.44064 3 2 ack 40 ------- 1 3.0 0.0 12 31
+ 0.44064 2 1 ack 40 ------- 1 3.0 0.0 12 31
- 0.44064 2 1 ack 40 ------- 1 3.0 0.0 12 31
r 0.44264 2 1 ack 40 ------- 1 3.0 0.0 11 28
+ 0.44264 1 0 ack 40 ------- 1 3.0 0.0 11 28
- 0.44264 1 0 ack 40 ------- 1 3.0 0.0 11 28
r 0.44464 1 0 ack 40 ------- 1 3.0 0.0 10 25
+ 0.44464 0 1 tcp 1040 ------- 1 0.0 3.0 21 35
+ 0.44464 0 1 tcp 1040 ------- 1 0.0 3.0 22 36
- 0.44464 0 1 tcp 1040 ------- 1 0.0 3.0 18 30
r 0.44632 0 1 tcp 1040 ------- 1 0.0 3.0 16 27
+ 0.44632 1 2 tcp 1040 ------- 1 0.0 3.0 16 27
- 0.44632 1 2 tcp 1040 ------- 1 0.0 3.0 16 27
r 0.44696 2 3 tcp 1040 ------- 1 0.0 3.0 14 21
+ 0.44696 3 2 ack 40 ------- 1 3.0 0.0 14 37
- 0.44696 3 2 ack 40 ------- 1 3.0 0.0 14 37
r 0.44896 3 2 ack 40 ------- 1 3.0 0.0 13 34
+ 0.44896 2 1 ack 40 ------- 1 3.0 0.0 13 34
- 0.44896 2 1 ack 40 ------- 1 3.0 0.0 13 34
r 0.45096 2 1 ack 40 ------- 1 3.0 0.0 12 31
+ 0.45096 1 0 ack 40 ------- 1 3.0 0.0 12 31
- 0.45096 1 0 ack 40 ------- 1 3.0 0.0 12 31
r 0.45296 1 0 ack 40 ------- 1 3.0 0.0 11 28
+ 0.45296 0 1 tcp 1040 ------- 1 0.0 3.0 23 38
+ 0.45296 0 1 tcp 1040 ------- 1 0.0 3.0 24 39
- 0.45296 0 1 tcp 1040 ------- 1 0.0 3.0 19 32
r 0.45464 0 1 tcp 1040 ------- 1 0.0 3.0 17 29
+ 0.45464 1 2 tcp 1040 ------- 1 0.0 3.0 17 29
- 0.45464 1 2 tcp 1040 ------- 1 0.0 3.0 17 29
r 0.45632 1 2 tcp 1040 ------- 1 0.0 3.0 15 26
+ 0.45632 2 3 tcp 1040 ------- 1 0.0 3.0 15 26
- 0.45632 2 3 tcp 1040 ------- 1 0.0 3.0 15 26
r 0.45728 3 2 ack 40 ------- 1 3.0 0.0 14 37
+ 0.45728 2 1 ack 40 ------- 1 3.0 0.0 14 37
- 0.45728 2 1 ack 40 ------- 1 3.0 0.0 14 37
r 0.45928 2 1 ack 40 ------- 1 3.0 0.0 13 34
+ 0.45928 1 0 ack 40 ------- 1 3.0 0.0 13 34
- 0.45928 1 0 ack 40 ------- 1 3.0 0.0 13 34
r 0.46128 1 0 ack 40 ------- 1 3.0 0.0 12 31
+ 0.46128 0 1 tcp 1040 ------- 1 0.0 3.0 25 40
+ 0.46128 0 1 tcp 1040 ------- 1 0.0 3.0 26 41
- 0.46128 0 1 tcp 1040 ------- 1 0.0 3.0 20 33
r 0.46296 0 1 tcp 1040 ------- 1 0.0 3.0 18 30
+ 0.46296 1 2 tcp 1040 ------- 1 0.0 3.0 18 30
- 0.46296 1 2 tcp 1040 ------- 1 0.0 3.0 18 30
r 0.46464 1 2 tcp 1040 ------- 1 0.0 3.0 16 27
+ 0.46464 2 3 tcp 1040 ------- 1 0.0 3.0 16 27
- 0.46464 2 3 tcp 1040 ------- 1 0.0 3.0 16 27
r 0.4676 2 1 ack 40 ------- 1 3.0 0.0 14 37
+ 0.4676 1 0 ack 40 ------- 1 3.0 0.0 14 37
- 0.4676 1 0 ack 40 ------- 1 3.0 0.0 14 37
r 0.4696 1 0 ack 40 ------- 1 3.0 0.0 13 34
+ 0.4696 0 1 tcp 1040 ------- 1 0.0 3.0 27 42
+ 0.4696 0 1 tcp 1040 ------- 1 0.0 3.0 28 43
- 0.4696 0 1 tcp 1040 ------- 1 0.0 3.0 21 35
r 0.47128 0 1 tcp 1040 ------- 1 0.0 3.0 19 32
+ 0.47128 1 2 tcp 1040 ------- 1 0.0 3.0 19 32
- 0.47128 1 2 tcp 1040 ------- 1 0.0 3.0 19 32
r 0.47296 1 2 tcp 1040 ------- 1 0.0 3.0 17 29
+ 0.47296 2 3 tcp 1040 ------- 1 0.0 3.0 17 29
- 0.47296 2 3 tcp 1040 ------- 1 0.0 3.0 17 29
r 0.47464 2 3 tcp 1040 ------- 1 0.0 3.0 15 26
+ 0.47464 3 2 ack 40 ------- 1 3.0 0.0 15 44
- 0.47464 3 2 ack 40 ------- 1 3.0 0.0 15 44
r 0.47792 1 0 ack 40 ------- 1 3.0 0.0 14 37
+ 0.47792 0 1 tcp 1040 ------- 1 0.0 3.0 29 45
+ 0.47792 0 1 tcp 1040 ------- 1 0.0 3.0 30 46
- 0.47792 0 1 tcp 1040 ------- 1 0.0 3.0 22 36
r 0.4796 0 1 tcp 1040 ------- 1 0.0 3.0 20 33
+ 0.4796 1 2 tcp 1040 ------- 1 0.0 3.0 20 33
- 0.4796 1 2 tcp 1040 ------- 1 0.0 3.0 20 33
r 0.48128 1 2 tcp 1040 ------- 1 0.0 3.0 18 30
+ 0.48128 2 3 tcp 1040 ------- 1 0.0 3.0 18 30
- 0.48128 2 3 tcp 1040 ------- 1 0.0 3.0 18 30
r 0.48296 2 3 tcp 1040 ------- 1 0.0 3.0 16 27
+ 0.48296 3 2 ack 40 ------- 1 3.0 0.0 16 47
- 0.48296 3 2 ack 40 ------- 1 3.0 0.0 16 47
r 0.48496 3 2 ack 40 ------- 1 3.0 0.0 15 44
+ 0.48496 2 1 ack 40 ------- 1 3.0 0.0 15 44
- 0.48496 2 1 ack 40 ------- 1 3.0 0.0 15 44
- 0.48624 0 1 tcp 1040 ------- 1 0.0 3.0 23 38
r 0.48792 0 1 tcp 1040 ------- 1 0.0 3.0 21 35
+ 0.48792 1 2 tcp 1040 ------- 1 0.0 3.0 21 35
- 0.48792 1 2 tcp 1040 ------- 1 0.0 3.0 21 35
r 0.4896 1 2 tcp 1040 ------- 1 0.0 3.0 19 32
+ 0.4896 2 3 tcp 1040 ------- 1 0.0 3.0 19 32
- 0.4896 2 3 tcp 1040 ------- 1 0.0 3.0 19 32
r 0.49128 2 3 tcp 1040 ------- 1 0.0 3.0 17 29
+ 0.49128 3 2 ack 40 ------- 1 3.0 0.0 17 48
- 0.49128 3 2 ack 40 ------- 1 3.0 0.0 17 48
r 0.49328 3 2 ack 40 ------- 1 3.0 0.0 16 47
+ 0.49328 2 1 ack 40 ------- 1 3.0 0.0 16 47
- 0.49328 2 1 ack 40 ------- 1 3.0 0.0 16 47
- 0.49456 0 1 tcp 1040 ------- 1 0.0 3.0 24 39
r 0.49528 2 1 ack 40 ------- 1 3.0 0.0 15 44
+ 0.49528 1 0 ack 40 ------- 1 3.0 0.0 15 44
- 0.49528 1 0 ack 40 ------- 1 3.0 0.0 15 44
r 0.49624 0 1 tcp 1040 ------- 1 0.0 3.0 22 36
+ 0.49624 1 2 tcp 1040 ------- 1 0.0 3.0 22 36
- 0.49624 1 2 tcp 1040 ------- 1 0.0 3.0 22 36
r 0.49792 1 2 tcp 1040 ------- 1 0.0 3.0 20 33
+ 0.49792 2 3 tcp 1040 ------- 1 0.0 3.0 20 33
- 0.49792 2 3 tcp 1040 ------- 1 0.0 3.0 20 33
r 0.4996 2 3 tcp 1040 ------- 1 0.0 3.0 18 30
+ 0.4996 3 2 ack 40 ------- 1 3.0 0.0 18 49
- 0.4996 3 2 ack 40 ------- 1 3.0 0.0 18 49
r 0.5016 3 2 ack 40 ------- 1 3.0 0.0 17 48
+ 0.5016 2 1 ack 40 ------- 1 3.0 0.0 17 48
- 0.5016 2 1 ack 40 ------- 1 3.0 0.0 17 48
- 0.50288 0 1 tcp 1040 ------- 1 0.0 3.0 25 40
r 0.5036 2 1 ack 40 ------- 1 3.0 0.0 16 47
+ 0.5036 1 0 ack 40 ------- 1 3.0 0.0 16 47
- 0.5036 1 0 ack 40 ------- 1 3.0 0.0 16 47
r 0.50456 0 1 tcp 1040 ------- 1 0.0 3.0 23 38
+ 0.50456 1 2 tcp 1040 ------- 1 0.0 3.0 23 38
- 0.50456 1 2 tcp 1040 ------- 1 0.0 3.0 23 38
r 0.5056 1 0 ack 40 ------- 1 3.0 0.0 15 44
+ 0.5056 0 1 tcp 1040 ------- 1 0.0 3.0 31 50
+ 0.5056 0 1 tcp 1040 ------- 1 0.0 3.0 32 51
r 0.50624 1 2 tcp 1040 ------- 1 0.0 3.0 21 35
+ 0.50624 2 3 tcp 1040 ------- 1 0.0 3.0 21 35
- 0.50624 2 3 tcp 1040 ------- 1 0.0 3.0 21 35
r 0.50792 2 3 tcp 1040 ------- 1 0.0 3.0 19 32
+ 0.50792 3 2 ack 40 ------- 1 3.0 0.0 19 52
- 0.50792 3 2 ack 40 ------- 1 3.0 0.0 19 52
r 0.50992 3 2 ack 40 ------- 1 3.0 0.0 18 49
+ 0.50992 2 1 ack 40 ------- 1 3.0 0.0 18 49
- 0.50992 2 1 ack 40 ------- 1 3.0 0.0 18 49
- 0.5112 0 1 tcp 1040 ------- 1 0.0 3.0 26 41
r 0.51192 2 1 ack 40 ------- 1 3.0 0.0 17 48
+ 0.51192 1 0 ack 40 ------- 1 3.0 0.0 17 48
- 0.51192 1 0 ack 40 ------- 1 3.0 0.0 17 48
r 0.51288 0 1 tcp 1040 ------- 1 0.0 3.0 24 39
+ 0.51288 1 2 tcp 1040 ------- 1 0.0 3.0 24 39
- 0.51288 1 2 tcp 1040 ------- 1 0.0 3.0 24 39
r 0.51392 1 0 ack 40 ------- 1 3.0 0.0 16 47
+ 0.51392 0 1 tcp 1040 ------- 1 0.0 3.0 33 53
+ 0.51392 0 1 tcp 1040 ------- 1 0.0 3.0 34 54
r 0.51456 1 2 tcp 1040 ------- 1 0.0 3.0 22 36
+ 0.51456 2 3 tcp 1040 ------- 1 0.0 3.0 22 36
- 0.51456 2 3 tcp 1040 ------- 1 0.0 3.0 22 36
r 0.51624 2 3 tcp 1040 ------- 1 0.0 3.0 20 33
+ 0.51624 3 2 ack 40 ------- 1 3.0 0.0 20 55
- 0.51624 3 2 ack 40 ------- 1 3.0 0.0 20 55
r 0.51824 3 2 ack 40 ------- 1 3.0 0.0 19 52
+ 0.51824 2 1 ack 40 ------- 1 3.0 0.0 19 52
- 0.51824 2 1 ack 40 ------- 1 3.0 0.0 19 52
- 0.51952 0 1 tcp 1040 ------- 1 0.0 3.0 27 42
r 0.52024 2 1 ack 40 ------- 1 3.0 0.0 18 49
+ 0.52024 1 0 ack 40 ------- 1 3.0 0.0 18 49
- 0.52024 1 0 ack 40 ------- 1 3.0 0.0 18 49
r 0.5212 0 1 tcp 1040 ------- 1 0.0 3.0 25 40
+ 0.5212 1 2 tcp 1040 ------- 1 0.0 3.0 25 40
- 0.5212 1 2 tcp 1040 ------- 1 0.0 3.0 25 40
r 0.52224 1 0 ack 40 ------- 1 3.0 0.0 17 48
+ 0.52224 0 1 tcp 1040 ------- 1 0.0 3.0 35 56
+ 0.52224 0 1 tcp 1040 ------- 1 0.0 3.0 36 57
r 0.52288 1 2 tcp 1040 ------- 1 0.0 3.0 23 38
+ 0.52288 2 3 tcp 1040 ------- 1 0.0 3.0 23 38
- 0.52288 2 3 tcp 1040 ------- 1 0.0 3.0 23 38
r 0.52456 2 3 tcp 1040 ------- 1 0.0 3.0 21 35
+ 0.52456 3 2 ack 40 ------- 1 3.0 0.0 21 58
- 0.52456 3 2 ack 40 ------- 1 3.0 0.0 21 58
r 0.52656 3 2 ack 40 ------- 1 3.0 0.0 20 55
+ 0.52656 2 1 ack 40 ------- 1 3.0 0.0 20 55
- 0.52656 2 1 ack 40 ------- 1 3.0 0.0 20 55
- 0.52784 0 1 tcp 1040 ------- 1 0.0 3.0 28 43
r 0.52856 2 1 ack 40 ------- 1 3.0 0.0 19 52
+ 0.52856 1 0 ack 40 ------- 1 3.0 0.0 19 52
- 0.52856 1 0 ack 40 ------- 1 3.0 0.0 19 52
r 0.52952 0 1 tcp 1040 ------- 1 0.0 3.0 26 41
+ 0.52952 1 2 tcp 1040 ------- 1 0.0 3.0 26 41
- 0.52952 1 2 tcp 1040 ------- 1 0.0 3.0 26 41
r 0.53056 1 0 ack 40 ------- 1 3.0 0.0 18 49
+ 0.53056 0 1 tcp 1040 ------- 1 0.0 3.0 37 59
+ 0.53056 0 1 tcp 1040 ------- 1 0.0 3.0 38 60
r 0.5312 1 2 tcp 1040 ------- 1 0.0 3.0 24 39
+ 0.5312 2 3 tcp 1040 ------- 1 0.0 3.0 24 39
- 0.5312 2 3 tcp 1040 ------- 1 0.0 3.0 24 39
r 0.53288 2 3 tcp 1040 ------- 1 0.0 3.0 22 36
+ 0.53288 3 2 ack 40 ------- 1 3.0 0.0 22 61
- 0.53288 3 2 ack 40 ------- 1 3.0 0.0 22 61
r 0.53488 3 2 ack 40 ------- 1 3.0 0.0 21 58
+ 0.53488 2 1 ack 40 ------- 1 3.0 0.0 21 58
- 0.53488 2 1 ack 40 ------- 1 3.0 0.0 21 58
- 0.53616 0 1 tcp 1040 ------- 1 0.0 3.0 29 45
r 0.53688 2 1 ack 40 ------- 1 3.0 0.0 20 55
+ 0.53688 1 0 ack 40 ------- 1 3.0 0.0 20 55
- 0.53688 1 0 ack 40 ------- 1 3.0 0.0 20 55
r 0.53784 0 1 tcp 1040 ------- 1 0.0 3.0 27 42
+ 0.53784 1 2 tcp 1040 ------- 1 0.0 3.0 27 42
- 0.53784 1 2 tcp 1040 ------- 1 0.0 3.0 27 42
r 0.53888 1 0 ack 40 ------- 1 3.0 0.0 19 52
+ 0.53888 0 1 tcp 1040 ------- 1 0.0 3.0 39 62
r 0.53952 1 2 tcp 1040 ------- 1 0.0 3.0 25 40
+ 0.53952 2 3 tcp 1040 ------- 1 0.0 3.0 25 40
- 0.53952 2 3 tcp 1040 ------- 1 0.0 3.0 25 40
r 0.5412 2 3 tcp 1040 ------- 1 0.0 3.0 23 38
+ 0.5412 3 2 ack 40 ------- 1 3.0 0.0 23 63
- 0.5412 3 2 ack 40 ------- 1 3.0 0.0 23 63
r 0.5432 3 2 ack 40 ------- 1 3.0 0.0 22 61
+ 0.5432 2 1 ack 40 ------- 1 3.0 0.0 22 61
- 0.5432 2 1 ack 40 ------- 1 3.0 0.0 22 61
- 0.54448 0 1 tcp 1040 ------- 1 0.0 3.0 30 46
r 0.5452 2 1 ack 40 ------- 1 3.0 0.0 21 58
+ 0.5452 1 0 ack 40 ------- 1 3.0 0.0 21 58
- 0.5452 1 0 ack 40 ------- 1 3.0 0.0 21 58
r 0.54616 0 1 tcp 1040 ------- 1 0.0 3.0 28 43
+ 0.54616 1 2 tcp 1040 ------- 1 0.0 3.0 28 43
- 0.54616 1 2 tcp 1040 ------- 1 0.0 3.0 28 43
r 0.5472 1 0 ack 40 ------- 1 3.0 0.0 20 55
+ 0.5472 0 1 tcp 1040 ------- 1 0.0 3.0 40 64
r 0.54784 1 2 tcp 1040 ------- 1 0.0 3.0 26 41
+ 0.54784 2 3 tcp 1040 ------- 1 0.0 3.0 26 41
- 0.54784 2 3 tcp 1040 ------- 1 0.0 3.0 26 41
r 0.54952 2 3 tcp 1040 ------- 1 0.0 3.0 24 39
+ 0.54952 3 2 ack 40 ------- 1 3.0 0.0 24 65
- 0.54952 3 2 ack 40 ------- 1 3.0 0.0 24 65
r 0.55152 3 2 ack 40 ------- 1 3.0 0.0 23 63
+ 0.55152 2 1 ack 40 ------- 1 3.0 0.0 23 63
- 0.55152 2 1 ack 40 ------- 1 3.0 0.0 23 63
- 0.5528 0 1 tcp 1040 ------- 1 0.0 3.0 31 50
r 0.55352 2 1 ack 40 ------- 1 3.0 0.0 22 61
+ 0.55352 1 0 ack 40 ------- 1 3.0 0.0 22 61
- 0.55352 1 0 ack 40 ------- 1 3.0 0.0 22 61
r 0.55448 0 1 tcp 1040 ------- 1 0.0 3.0 29 45
+ 0.55448 1 2 tcp 1040 ------- 1 0.0 3.0 29 45
- 0.55448 1 2 tcp 1040 ------- 1 0.0 3.0 29 45
r 0.55552 1 0 ack 40 ------- 1 3.0 0.0 21 58
+ 0.55552 0 1 tcp 1040 ------- 1 0.0 3.0 41 66
r 0.55616 1 2 tcp 1040 ------- 1 0.0 3.0 27 42
+ 0.55616 2 3 tcp 1040 ------- 1 0.0 3.0 27 42
- 0.55616 2 3 tcp 1040 ------- 1 0.0 3.0 27 42
r 0.55784 2 3 tcp 1040 ------- 1 0.0 3.0 25 40
+ 0.55784 3 2 ack 40 ------- 1 3.0 0.0 25 67
- 0.55784 3 2 ack 40 ------- 1 3.0 0.0 25 67
r 0.55984 3 2 ack 40 ------- 1 3.0 0.0 24 65
+ 0.55984 2 1 ack 40 ------- 1 3.0 0.0 24 65
- 0.55984 2 1 ack 40 ------- 1 3.0 0.0 24 65
- 0.56112 0 1 tcp 1040 ------- 1 0.0 3.0 32 51
r 0.56184 2 1 ack 40 ------- 1 3.0 0.0 23 63
+ 0.56184 1 0 ack 40 ------- 1 3.0 0.0 23 63
- 0.56184 1 0 ack 40 ------- 1 3.0 0.0 23 63
r 0.5628 0 1 tcp 1040 ------- 1 0.0 3.0 30 46
+ 0.5628 1 2 tcp 1040 ------- 1 0.0 3.0 30 46
- 0.5628 1 2 tcp 1040 ------- 1 0.0 3.0 30 46
r 0.56384 1 0 ack 40 ------- 1 3.0 0.0 22 61
+ 0.56384 0 1 tcp 1040 ------- 1 0.0 3.0 42 68
r 0.56448 1 2 tcp 1040 ------- 1 0.0 3.0 28 43
+ 0.56448 2 3 tcp 1040 ------- 1 0.0 3.0 28 43
- 0.56448 2 3 tcp 1040 ------- 1 0.0 3.0 28 43
r 0.56616 2 3 tcp 1040 ------- 1 0.0 3.0 26 41
+ 0.56616 3 2 ack 40 ------- 1 3.0 0.0 26 69
- 0.56616 3 2 ack 40 ------- 1 3.0 0.0 26 69
r 0.56816 3 2 ack 40 ------- 1 3.0 0.0 25 67
+ 0.56816 2 1 ack 40 ------- 1 3.0 0.0 25 67
- 0.56816 2 1 ack 40 ------- 1 3.0 0.0 25 67
- 0.56944 0 1 tcp 1040 ------- 1 0.0 3.0 33 53
r 0.57016 2 1 ack 40 ------- 1 3.0 0.0 24 65
+ 0.57016 1 0 ack 40 ------- 1 3.0 0.0 24 65
- 0.57016 1 0 ack 40 ------- 1 3.0 0.0 24 65
r 0.57112 0 1 tcp 1040 ------- 1 0.0 3.0 31 50
+ 0.57112 1 2 tcp 1040 ------- 1 0.0 3.0 31 50
- 0.57112 1 2 tcp 1040 ------- 1 0.0 3.0 31 50
r 0.57216 1 0 ack 40 ------- 1 3.0 0.0 23 63
+ 0.57216 0 1 tcp 1040 ------- 1 0.0 3.0 43 70
r 0.5728 1 2 tcp 1040 ------- 1 0.0 3.0 29 45
+ 0.5728 2 3 tcp 1040 ------- 1 0.0 3.0 29 45
- 0.5728 2 3 tcp 1040 ------- 1 0.0 3.0 29 45
r 0.57448 2 3 tcp 1040 ------- 1 0.0 3.0 27 42
+ 0.57448 3 2 ack 40 ------- 1 3.0 0.0 27 71
- 0.57448 3 2 ack 40 ------- 1 3.0 0.0 27 71
r 0.57648 3 2 ack 40 ------- 1 3.0 0.0 26 69
+ 0.57648 2 1 ack 40 ------- 1 3.0 0.0 26 69
- 0.57648 2 1 ack 40 ------- 1 3.0 0.0 26 69
- 0.57776 0 1 tcp 1040 ------- 1 0.0 3.0 34 54
r 0.57848 2 1 ack 40 ------- 1 3.0 0.0 25 67
+ 0.57848 1 0 ack 40 ------- 1 3.0 0.0 25 67
- 0.57848 1 0 ack 40 ------- 1 3.0 0.0 25 67
r 0.57944 0 1 tcp 1040 ------- 1 0.0 3.0 32 51
+ 0.57944 1 2 tcp 1040 ------- 1 0.0 3.0 32 51
- 0.57944 1 2 tcp 1040 ------- 1 0.0 3.0 32 51
r 0.58048 1 0 ack 40 ------- 1 3.0 0.0 24 65
+ 0.58048 0 1 tcp 1040 ------- 1 0.0 3.0 44 72
r 0.58112 1 2 tcp 1040 ------- 1 0.0 3.0 30 46
+ 0.58112 2 3 tcp 1040 ------- 1 0.0 3.0 30 46
- 0.58112 2 3 tcp 1040 ------- 1 0.0 3.0 30 46
r 0.5828 2 3 tcp 1040 ------- 1 0.0 3.0 28 43
+ 0.5828 3 2 ack 40 ------- 1 3.0 0.0 28 73
- 0.5828 3 2 ack 40 ------- 1 3.0 0.0 28 73
r 0.5848 3 2 ack 40 ------- 1 3.0 0.0 27 71
+ 0.5848 2 1 ack 40 ------- 1 3.0 0.0 27 71
- 0.5848 2 1 ack 40 ------- 1 3.0 0.0 27 71
- 0.58608 0 1 tcp 1040 ------- 1 0.0 3.0 35 56
r 0.5868 2 1 ack 40 ------- 1 3.0 0.0 26 69
+ 0.5868 1 0 ack 40 ------- 1 3.0 0.0 26 69
- 0.5868 1 0 ack 40 ------- 1 3.0 0.0 26 69
r 0.58776 0 1 tcp 1040 ------- 1 0.0 3.0 33 53
+ 0.58776 1 2 tcp 1040 ------- 1 0.0 3.0 33 53
- 0.58776 1 2 tcp 1040 ------- 1 0.0 3.0 33 53
r 0.5888 1 0 ack 40 ------- 1 3.0 0.0 25 67
+ 0.5888 0 1 tcp 1040 ------- 1 0.0 3.0 45 74
r 0.58944 1 2 tcp 1040 ------- 1 0.0 3.0 31 50
+ 0.58944 2 3 tcp 1040 ------- 1 0.0 3.0 31 50
- 0.58944 2 3 tcp 1040 ------- 1 0.0 3.0 31 50
r 0.59112 2 3 tcp 1040 ------- 1 0.0 3.0 29 45
+ 0.59112 3 2 ack 40 ------- 1 3.0 0.0 29 75
- 0.59112 3 2 ack 40 ------- 1 3.0 0.0 29 75
r 0.59312 3 2 ack 40 ------- 1 3.0 0.0 28 73
+ 0.59312 2 1 ack 40 ------- 1 3.0 0.0 28 73
- 0.59312 2 1 ack 40 ------- 1 3.0 0.0 28 73
- 0.5944 0 1 tcp 1040 ------- 1 0.0 3.0 36 57
r 0.59512 2 1 ack 40 ------- 1 3.0 0.0 27 71
+ 0.59512 1 0 ack 40 ------- 1 3.0 0.0 27 71
- 0.59512 1 0 ack 40 ------- 1 3.0 0.0 27 71
r 0.59608 0 1 tcp 1040 ------- 1 0.0 3.0 34 54
+ 0.59608 1 2 tcp 1040 ------- 1 0.0 3.0 34 54
- 0.59608 1 2 tcp 1040 ------- 1 0.0 3.0 34 54
r 0.59712 1 0 ack 40 ------- 1 3.0 0.0 26 69
+ 0.59712 0 1 tcp 1040 ------- 1 0.0 3.0 46 76
r 0.59776 1 2 tcp 1040 ------- 1 0.0 3.0 32 51
+ 0.59776 2 3 tcp 1040 ------- 1 0.0 3.0 32 51
- 0.59776 2 3 tcp 1040 ------- 1 0.0 3.0 32 51
r 0.59944 2 3 tcp 1040 ------- 1 0.0 3.0 30 46
+ 0.59944 3 2 ack 40 ------- 1 3.0 0.0 30 77
- 0.59944 3 2 ack 40 ------- 1 3.0 0.0 30 77
r 0.60144 3 2 ack 40 ------- 1 3.0 0.0 29 75
+ 0.60144 2 1 ack 40 ------- 1 3.0 0.0 29 75
- 0.60144 2 1 ack 40 ------- 1 3.0 0.0 29 75
- 0.60272 0 1 tcp 1040 ------- 1 0.0 3.0 37 59
r 0.60344 2 1 ack 40 ------- 1 3.0 0.0 28 73
+ 0.60344 1 0 ack 40 ------- 1 3.0 0.0 28 73
- 0.60344 1 0 ack 40 ------- 1 3.0 0.0 28 73
r 0.6044 0 1 tcp 1040 ------- 1 0.0 3.0 35 56
+ 0.6044 1 2 tcp 1040 ------- 1 0.0 3.0 35 56
- 0.6044 1 2 tcp 1040 ------- 1 0.0 3.0 35 56
r 0.60544 1 0 ack 40 ------- 1 3.0 0.0 27 71
+ 0.60544 0 1 tcp 1040 ------- 1 0.0 3.0 47 78
r 0.60608 1 2 tcp 1040 ------- 1 0.0 3.0 33 53
+ 0.60608 2 3 tcp 1040 ------- 1 0.0 3.0 33 53
- 0.60608 2 3 tcp 1040 ------- 1 0.0 3.0 33 53
r 0.60776 2 3 tcp 1040 ------- 1 0.0 3.0 31 50
+ 0.60776 3 2 ack 40 ------- 1 3.0 0.0 31 79
- 0.60776 3 2 ack 40 ------- 1 3.0 0.0 31 79
r 0.60976 3 2 ack 40 ------- 1 3.0 0.0 30 77
+ 0.60976 2 1 ack 40 ------- 1 3.0 0.0 30 77
- 0.60976 2 1 ack 40 ------- 1 3.0 0.0 30 77
- 0.61104 0 1 tcp 1040 ------- 1 0.0 3.0 38 60
r 0.61176 2 1 ack 40 ------- 1 3.0 0.0 29 75
+ 0.61176 1 0 ack 40 ------- 1 3.0 0.0 29 75
- 0.61176 1 0 ack 40 ------- 1 3.0 0.0 29 75
r 0.61272 0 1 tcp 1040 ------- 1 0.0 3.0 36 57
+ 0.61272 1 2 tcp 1040 ------- 1 0.0 3.0 36 57
- 0.61272 1 2 tcp 1040 ------- 1 0.0 3.0 36 57
r 0.61376 1 0 ack 40 ------- 1 3.0 0.0 28 73
+ 0.61376 0 1 tcp 1040 ------- 1 0.0 3.0 48 80
r 0.6144 1 2 tcp 1040 ------- 1 0.0 3.0 34 54
+ 0.6144 2 3 tcp 1040 ------- 1 0.0 3.0 34 54
- 0.6144 2 3 tcp 1040 ------- 1 0.0 3.0 34 54
r 0.61608 2 3 tcp 1040 ------- 1 0.0 3.0 32 51
+ 0.61608 3 2 ack 40 ------- 1 3.0 0.0 32 81
- 0.61608 3 2 ack 40 ------- 1 3.0 0.0 32 81
r 0.61808 3 2 ack 40 ------- 1 3.0 0.0 31 79
+ 0.61808 2 1 ack 40 ------- 1 3.0 0.0 31 79
- 0.61808 2 1 ack 40 ------- 1 3.0 0.0 31 79
- 0.61936 0 1 tcp 1040 ------- 1 0.0 3.0 39 62
r 0.62008 2 1 ack 40 ------- 1 3.0 0.0 30 77
+ 0.62008 1 0 ack 40 ------- 1 3.0 0.0 30 77
- 0.62008 1 0 ack 40 ------- 1 3.0 0.0 30 77
r 0.62104 0 1 tcp 1040 ------- 1 0.0 3.0 37 59
+ 0.62104 1 2 tcp 1040 ------- 1 0.0 3.0 37 59
- 0.62104 1 2 tcp 1040 ------- 1 0.0 3.0 37 59
r 0.62208 1 0 ack 40 ------- 1 3.0 0.0 29 75
+ 0.62208 0 1 tcp 1040 ------- 1 0.0 3.0 49 82
r 0.62272 1 2 tcp 1040 ------- 1 0.0 3.0 35 56
+ 0.62272 2 3 tcp 1040 ------- 1 0.0 3.0 35 56
- 0.62272 2 3 tcp 1040 ------- 1 0.0 3.0 35 56
r 0.6244 2 3 tcp 1040 ------- 1 0.0 3.0 33 53
+ 0.6244 3 2 ack 40 ------- 1 3.0 0.0 33 83
- 0.6244 3 2 ack 40 ------- 1 3.0 0.0 33 83
r 0.6264 3 2 ack 40 ------- 1 3.0 0.0 32 81
+ 0.6264 2 1 ack 40 ------- 1 3.0 0.0 32 81
- 0.6264 2 1 ack 40 ------- 1 3.0 0.0 32 81
- 0.62768 0 1 tcp 1040 ------- 1 0.0 3.0 40 64
r 0.6284 2 1 ack 40 ------- 1 3.0 0.0 31 79
+ 0.6284 1 0 ack 40 ------- 1 3.0 0.0 31 79
- 0.6284 1 0 ack 40 ------- 1 3.0 0.0 31 79
r 0.62936 0 1 tcp 1040 ------- 1 0.0 3.0 38 60
+ 0.62936 1 2 tcp 1040 ------- 1 0.0 3.0 38 60
- 0.62936 1 2 tcp 1040 ------- 1 0.0 3.0 38 60
r 0.6304 1 0 ack 40 ------- 1 3.0 0.0 30 77
+ 0.6304 0 1 tcp 1040 ------- 1 0.0 3.0 50 84
r 0.63104 1 2 tcp 1040 ------- 1 0.0 3.0 36 57
+ 0.63104 2 3 tcp 1040 ------- 1 0.0 3.0 36 57
- 0.63104 2 3 tcp 1040 ------- 1 0.0 3.0 36 57
r 0.63272 2 3 tcp 1040 ------- 1 0.0 3.0 34 54
+ 0.63272 3 2 ack 40 ------- 1 3.0 0.0 34 85
- 0.63272 3 2 ack 40 ------- 1 3.0 0.0 34 85
r 0.63472 3 2 ack 40 ------- 1 3.0 0.0 33 83
+ 0.63472 2 1 ack 40 ------- 1 3.0 0.0 33 83
- 0.63472 2 1 ack 40 ------- 1 3.0 0.0 33 83
- 0.636 0 1 tcp 1040 ------- 1 0.0 3.0 41 66
r 0.63672 2 1 ack 40 ------- 1 3.0 0.0 32 81
+ 0.63672 1 0 ack 40 ------- 1 3.0 0.0 32 81
- 0.63672 1 0 ack 40 ------- 1 3.0 0.0 32 81
r 0.63768 0 1 tcp 1040 ------- 1 0.0 3.0 39 62
+ 0.63768 1 2 tcp 1040 ------- 1 0.0 3.0 39 62